 vasp.5.4.4.18Apr17-6-g9f103f2a35 (build May 23 2017 16:08:52) complex          
  
 executed on             LinuxIFC date 2024.10.14  16:02:20
 running on   20 total cores
 distrk:  each k-point on   20 cores,    1 groups
 distr:  one band on NCORES_PER_BAND=  10 cores,    2 groups


--------------------------------------------------------------------------------------------------------


 INCAR:
 POTCAR:    PAW_PBE Y_sv 25May2007                
 POTCAR:    PAW_PBE Sb 06Sep2000                  
 POTCAR:    PAW_PBE Te 08Apr2002                  

 ----------------------------------------------------------------------------- 
|                                                                             |
|           W    W    AA    RRRRR   N    N  II  N    N   GGGG   !!!           |
|           W    W   A  A   R    R  NN   N  II  NN   N  G    G  !!!           |
|           W    W  A    A  R    R  N N  N  II  N N  N  G       !!!           |
|           W WW W  AAAAAA  RRRRR   N  N N  II  N  N N  G  GGG   !            |
|           WW  WW  A    A  R   R   N   NN  II  N   NN  G    G                |
|           W    W  A    A  R    R  N    N  II  N    N   GGGG   !!!           |
|                                                                             |
|      For optimal performance we recommend to set                            |
|        NCORE= 4 - approx SQRT( number of cores)                             |
|      NCORE specifies how many cores store one orbital (NPAR=cpu/NCORE).     |
|      This setting can  greatly improve the performance of VASP for DFT.     |
|      The default,   NCORE=1            might be grossly inefficient         |
|      on modern multi-core architectures or massively parallel machines.     |
|      Do your own testing !!!!                                               |
|      Unfortunately you need to use the default for GW and RPA calculations. |
|      (for HF NCORE is supported but not extensively tested yet)             |
|                                                                             |
 ----------------------------------------------------------------------------- 

 POTCAR:    PAW_PBE Y_sv 25May2007                
   VRHFIN =Y: 4s4p5s4d                                                          
   LEXCH  = PE                                                                  
   EATOM  =  1046.9140 eV,   76.9460 Ry                                         
                                                                                
   TITEL  = PAW_PBE Y_sv 25May2007                                              
   LULTRA =        F    use ultrasoft PP ?                                      
   IUNSCR =        1    unscreen: 0-lin 1-nonlin 2-no                           
   RPACOR =    2.200    partial core radius                                     
   POMASS =   88.906; ZVAL   =   11.000    mass and valenz                      
   RCORE  =    2.800    outmost cutoff radius                                   
   RWIGS  =    3.430; RWIGS  =    1.815    wigner-seitz radius (au A)           
   ENMAX  =  202.626; ENMIN  =  151.970 eV                                      
   RCLOC  =    2.212    cutoff for local pot                                    
   LCOR   =        T    correct aug charges                                     
   LPAW   =        T    paw PP                                                  
   EAUG   =  470.889                                                            
   DEXC   =    0.000                                                            
   RMAX   =    2.863    core radius for proj-oper                               
   RAUG   =    1.300    factor for augmentation sphere                          
   RDEP   =    2.926    radius for radial grids                                 
   RDEPT  =    2.280    core radius for aug-charge                              
                                                                                
   Atomic configuration                                                         
   11 entries                                                                   
     n  l   j            E        occ.                                          
     1  0  0.50    -16863.0720   2.0000                                         
     2  0  0.50     -2309.2881   2.0000                                         
     2  1  1.50     -2055.5536   6.0000                                         
     3  0  0.50      -367.1837   2.0000                                         
     3  1  1.50      -284.8912   6.0000                                         
     3  2  2.50      -149.4324  10.0000                                         
     4  0  0.50       -46.3345   2.0000                                         
     5  0  0.50        -3.6387   1.0000                                         
     4  1  1.50       -26.3769   6.0000                                         
     4  2  2.50        -1.6291   2.0000                                         
     4  3  2.50        -1.3606   0.0000                                         
   Description                                                                  
     l       E           TYP  RCUT    TYP  RCUT                                 
     0    -46.3344714     23  2.600                                             
     0     -3.6387002     23  2.700                                             
     1    -26.3769044     23  2.600                                             
     1    -27.7374870     23  2.600                                             
     2     -1.6291019     23  2.600                                             
     2      0.1354037     23  2.600                                             
     3     -1.3605826     23  2.800                                             
  local pseudopotential read in
  partial core-charges read in
  partial kinetic energy density read in
  atomic valenz-charges read in
  non local Contribution for L=           0  read in
    real space projection operators read in
  non local Contribution for L=           0  read in
    real space projection operators read in
  non local Contribution for L=           1  read in
    real space projection operators read in
  non local Contribution for L=           1  read in
    real space projection operators read in
  non local Contribution for L=           2  read in
    real space projection operators read in
  non local Contribution for L=           2  read in
    real space projection operators read in
  non local Contribution for L=           3  read in
    real space projection operators read in
    PAW grid and wavefunctions read in
 
   number of l-projection  operators is LMAX  =           7
   number of lm-projection operators is LMMAX =          25
 
 POTCAR:    PAW_PBE Sb 06Sep2000                  
   VRHFIN =Sb: s2p3                                                             
   LEXCH  = PE                                                                  
   EATOM  =   149.9515 eV,   11.0211 Ry                                         
                                                                                
   TITEL  = PAW_PBE Sb 06Sep2000                                                
   LULTRA =        F    use ultrasoft PP ?                                      
   IUNSCR =        1    unscreen: 0-lin 1-nonlin 2-no                           
   RPACOR =    2.200    partial core radius                                     
   POMASS =  121.750; ZVAL   =    5.000    mass and valenz                      
   RCORE  =    2.300    outmost cutoff radius                                   
   RWIGS  =    2.980; RWIGS  =    1.577    wigner-seitz radius (au A)           
   ENMAX  =  172.069; ENMIN  =  129.052 eV                                      
   ICORE  =        3    local potential                                         
   LCOR   =        T    correct aug charges                                     
   LPAW   =        T    paw PP                                                  
   EAUG   =  380.513                                                            
   DEXC   =    0.000                                                            
   RMAX   =    2.346    core radius for proj-oper                               
   RAUG   =    1.300    factor for augmentation sphere                          
   RDEP   =    2.360    radius for radial grids                                 
   RDEPT  =    2.192    core radius for aug-charge                              
                                                                                
   Atomic configuration                                                         
   13 entries                                                                   
     n  l   j            E        occ.                                          
     1  0  0.50    -30298.2797   2.0000                                         
     2  0  0.50     -4610.2252   2.0000                                         
     2  1  1.50     -4138.3407   6.0000                                         
     3  0  0.50      -903.8815   2.0000                                         
     3  1  1.50      -750.1337   6.0000                                         
     3  2  2.50      -515.7092  10.0000                                         
     4  0  0.50      -148.8034   2.0000                                         
     4  1  1.50      -101.7581   6.0000                                         
     4  2  2.50       -33.5048  10.0000                                         
     5  0  0.50       -12.8298   2.0000                                         
     5  1  0.50        -4.8276   3.0000                                         
     5  2  1.50        -4.0817   0.0000                                         
     4  3  2.50        -4.0817   0.0000                                         
   Description                                                                  
     l       E           TYP  RCUT    TYP  RCUT                                 
     0    -12.8297861     23  2.300                                             
     0     13.6058260     23  2.300                                             
     1     -4.8275512     23  2.300                                             
     1     -0.7245443     23  2.300                                             
     2     -4.0817478     23  2.300                                             
     3     -1.3605826     23  2.300                                             
  local pseudopotential read in
  partial core-charges read in
  partial kinetic energy density read in
  atomic valenz-charges read in
  non local Contribution for L=           0  read in
    real space projection operators read in
  non local Contribution for L=           0  read in
    real space projection operators read in
  non local Contribution for L=           1  read in
    real space projection operators read in
  non local Contribution for L=           1  read in
    real space projection operators read in
  non local Contribution for L=           2  read in
    real space projection operators read in
    PAW grid and wavefunctions read in
 
   number of l-projection  operators is LMAX  =           5
   number of lm-projection operators is LMMAX =          13
 
 POTCAR:    PAW_PBE Te 08Apr2002                  
   VRHFIN =Te: s2p4                                                             
   LEXCH  = PE                                                                  
   EATOM  =   223.2721 eV,   16.4100 Ry                                         
                                                                                
   TITEL  = PAW_PBE Te 08Apr2002                                                
   LULTRA =        F    use ultrasoft PP ?                                      
   IUNSCR =        1    unscreen: 0-lin 1-nonlin 2-no                           
   RPACOR =    2.200    partial core radius                                     
   POMASS =  127.600; ZVAL   =    6.000    mass and valenz                      
   RCORE  =    2.300    outmost cutoff radius                                   
   RWIGS  =    2.900; RWIGS  =    1.535    wigner-seitz radius (au A)           
   ENMAX  =  174.982; ENMIN  =  131.236 eV                                      
   ICORE  =        3    local potential                                         
   LCOR   =        T    correct aug charges                                     
   LPAW   =        T    paw PP                                                  
   EAUG   =  368.792                                                            
   DEXC   =    0.000                                                            
   RMAX   =    2.345    core radius for proj-oper                               
   RAUG   =    1.300    factor for augmentation sphere                          
   RDEP   =    2.397    radius for radial grids                                 
   RDEPT  =    2.174    core radius for aug-charge                              
                                                                                
   Atomic configuration                                                         
   13 entries                                                                   
     n  l   j            E        occ.                                          
     1  0  0.50    -31621.2075   2.0000                                         
     2  0  0.50     -4848.7941   2.0000                                         
     2  1  1.50     -4352.1960   6.0000                                         
     3  0  0.50      -964.9612   2.0000                                         
     3  1  1.50      -803.6179   6.0000                                         
     3  2  2.50      -559.8710  10.0000                                         
     4  0  0.50      -164.3522   2.0000                                         
     4  1  1.50      -114.3756   6.0000                                         
     4  2  2.50       -41.6483  10.0000                                         
     5  0  0.50       -15.1072   2.0000                                         
     5  1  0.50        -5.9526   4.0000                                         
     5  2  1.50        -5.4423   0.0000                                         
     4  3  2.50        -5.4423   0.0000                                         
   Description                                                                  
     l       E           TYP  RCUT    TYP  RCUT                                 
     0    -15.1072389     23  2.300                                             
     0    -16.4678215     23  2.300                                             
     1     -5.9526306     23  2.300                                             
     1     -2.4873968     23  2.300                                             
     2     -5.4423304     23  2.300                                             
     3     -1.3605826     23  2.300                                             
  local pseudopotential read in
  partial core-charges read in
  partial kinetic energy density read in
  atomic valenz-charges read in
  non local Contribution for L=           0  read in
    real space projection operators read in
  non local Contribution for L=           0  read in
    real space projection operators read in
  non local Contribution for L=           1  read in
    real space projection operators read in
  non local Contribution for L=           1  read in
    real space projection operators read in
  non local Contribution for L=           2  read in
    real space projection operators read in
    PAW grid and wavefunctions read in
 
   number of l-projection  operators is LMAX  =           5
   number of lm-projection operators is LMMAX =          13
 
 Optimization of the real space projectors (new method)

 maximal supplied QI-value         = 13.42
 optimisation between [QCUT,QGAM] = [ 10.87, 21.74] = [ 33.07,132.30] Ry 
 Optimized for a Real-space Cutoff    1.65 Angstroem

   l    n(q)    QCUT    max X(q) W(low)/X(q) W(high)/X(q)  e(spline) 
   0     11    10.868    14.902    0.21E-04    0.16E-05    0.64E-07
   0     11    10.868     9.294    0.32E-04    0.17E-05    0.13E-06
   1     10    10.868    69.520    0.12E-03    0.48E-05    0.25E-06
   1     10    10.868    72.085    0.12E-03    0.49E-05    0.25E-06
   2     10    10.868    62.934    0.22E-03    0.51E-03    0.61E-06
   2     10    10.868    49.749    0.21E-03    0.49E-03    0.59E-06
   3      9    10.868     8.311    0.16E-03    0.20E-03    0.22E-06
 Optimization of the real space projectors (new method)

 maximal supplied QI-value         = 16.25
 optimisation between [QCUT,QGAM] = [ 10.73, 21.61] = [ 32.22,130.83] Ry 
 Optimized for a Real-space Cutoff    1.38 Angstroem

   l    n(q)    QCUT    max X(q) W(low)/X(q) W(high)/X(q)  e(spline) 
   0      9    10.726    19.000    0.17E-03    0.12E-04    0.64E-07
   0      9    10.726     9.057    0.20E-03    0.14E-04    0.77E-07
   1      8    10.726   125.345    0.65E-04    0.25E-03    0.12E-06
   1      8    10.726    79.963    0.64E-04    0.24E-03    0.12E-06
   2      8    10.726     6.963    0.16E-03    0.15E-04    0.42E-07
 Optimization of the real space projectors (new method)

 maximal supplied QI-value         = 16.25
 optimisation between [QCUT,QGAM] = [ 10.73, 21.61] = [ 32.22,130.83] Ry 
 Optimized for a Real-space Cutoff    1.38 Angstroem

   l    n(q)    QCUT    max X(q) W(low)/X(q) W(high)/X(q)  e(spline) 
   0      9    10.726   224.858    0.24E-03    0.26E-04    0.79E-07
   0      9    10.726   205.313    0.24E-03    0.26E-04    0.80E-07
   1      8    10.726   119.695    0.67E-04    0.26E-03    0.13E-06
   1      8    10.726    84.282    0.66E-04    0.25E-03    0.12E-06
   2      8    10.726     5.599    0.15E-03    0.12E-04    0.41E-07
  PAW_PBE Y_sv 25May2007                :
 energy of atom  1       EATOM=-1046.9140
 kinetic energy error for atom=    0.0015 (will be added to EATOM!!)
  PAW_PBE Sb 06Sep2000                  :
 energy of atom  2       EATOM= -149.9515
 kinetic energy error for atom=    0.0006 (will be added to EATOM!!)
  PAW_PBE Te 08Apr2002                  :
 energy of atom  3       EATOM= -223.2721
 kinetic energy error for atom=    0.0008 (will be added to EATOM!!)
 
 
 POSCAR: Y8 Sb46 Te81                            
  positions in direct lattice
  No initial velocities read in
 exchange correlation table for  LEXCH =        8
   RHO(1)=    0.500       N(1)  =     2000
   RHO(2)=  100.500       N(2)  =     4000
 


--------------------------------------------------------------------------------------------------------


 ion  position               nearest neighbor table
   1  0.558  0.784  0.721-  75 3.08  81 3.10 128 3.10  80 3.11 129 3.12 134 3.13   4 4.31
   2  0.446  0.557  0.946-  63 3.06 107 3.06  62 3.08  59 3.09 102 3.10 108 3.14
   3  0.106  0.897  0.277-  86 3.05  64 3.10  65 3.10  82 3.11  83 3.12  70 3.13
   4  0.884  0.104  0.723- 129 3.07  73 3.08  75 3.09 130 3.09  76 3.13 132 3.14   1 4.31
   5  0.005  0.656  0.501-  97 3.05 124 3.10 118 3.11  92 3.12 126 3.12  91 3.14   7 4.29
   6  0.225  0.113  0.055- 113 3.07 109 3.08 112 3.08  59 3.09  56 3.09  55 3.11  18 4.07
   7  0.681  0.335  0.503-  97 3.04  99 3.07 126 3.10  96 3.13 123 3.13 122 3.14  46 4.03   5 4.29

   8  0.120  0.225  0.941- 103 3.05  55 3.08 104 3.08 107 3.09  58 3.11  59 3.17  49 4.07
   9  0.237  0.783  0.720- 128 2.99  80 3.02  74 3.03 127 3.18  79 3.20 133 3.20
  10  0.437  0.218  0.274-  86 2.97  87 3.03  90 3.10  65 3.10  68 3.17  69 3.24
  11  0.775  0.562  0.274-  82 2.99  90 3.04  88 3.07  72 3.15  70 3.17  69 3.23
  12  0.897  0.773  0.722- 135 3.05  79 3.07 127 3.11  73 3.11 129 3.11  81 3.12
  13  0.219  0.787  0.059- 109 2.93 110 3.02  56 3.07  61 3.14 115 3.19  62 3.28
  14  0.334  0.006  0.163- 113 3.03 109 3.03 110 3.08  87 3.14  86 3.16  83 3.18
  15  0.896  0.435  0.390- 123 2.96  67 2.97 124 2.99  69 3.21 126 3.27  70 3.28
  16  0.664  0.990  0.511-  93 2.90  94 2.90  96 2.93 120 3.28 119 3.37 123 3.45
  17  0.112  0.550  0.277-  89 3.01  67 3.02  71 3.08  70 3.16  88 3.16  83 3.19
  18  0.333  0.335  0.155- 113 2.90 112 2.93 116 2.94  90 3.33  86 3.33  89 3.35   6 4.07
  19  0.332  0.666  0.827- 134 2.93 133 2.93 128 3.06 107 3.15 101 3.27 102 3.32
  20  0.685  0.998  0.168- 111 2.83  85 3.00  84 3.04 114 3.12  87 3.34 110 3.38
  21  0.654  0.662  0.499- 125 2.98  93 3.02  99 3.08 126 3.17 120 3.18  91 3.23
  22  0.217  0.765  0.392- 124 2.94  71 3.04 119 3.05 118 3.13  70 3.16  65 3.30
  23  0.221  0.436  0.052-  59 2.95 112 3.06  58 3.07 116 3.10  62 3.15 115 3.28
  24  0.868  0.433  0.718-  78 2.84 135 3.00 132 3.03  79 3.16  76 3.22 133 3.47
  25  0.229  0.449  0.717-  80 2.90  76 2.93  77 2.99 133 3.21 134 3.23 130 3.33
  26  0.979  0.642  0.163- 117 2.85  88 2.94 115 2.99  82 3.25 109 3.33  83 3.43
  27  0.445  0.894  0.278-  66 3.07  83 3.09  65 3.10  71 3.11  87 3.12  84 3.15
  28  0.773  0.887  0.946-  57 2.99 102 3.01  63 3.05 103 3.12  55 3.18 100 3.21
  29  0.763  0.881  0.617-  75 2.90  81 2.96  93 3.05  73 3.21  94 3.28  91 3.38
  30  0.338  0.668  0.163- 116 2.98 110 3.05 115 3.09  84 3.10  89 3.25  83 3.30
  31  0.230  0.119  0.724-  77 3.00 131 3.01 130 3.08  74 3.14  73 3.17 127 3.20
  32  0.432  0.537  0.277-  89 2.92  68 2.94  90 2.95  71 3.26  72 3.31  84 3.32
  33  0.662  0.315  0.842- 105 2.84 106 2.95 108 3.11 132 3.14 131 3.32 135 3.46
  34  0.661  0.663  0.838- 102 2.93 108 3.01 100 3.07 134 3.09 129 3.21 135 3.33
  35  0.851  0.097  0.058- 114 2.84 111 2.87  57 2.97  58 3.37  55 3.44 112 3.44
  36  0.558  0.119  0.394- 122 2.95 123 2.96 119 3.10  69 3.15  66 3.29  65 3.32
  37  0.546  0.137  0.725- 131 2.81  78 2.97 132 3.02  74 3.14 128 3.29  75 3.56
  38  0.780  0.211  0.280-  66 2.92  67 3.00  85 3.02  69 3.19  87 3.23  88 3.28
  39  0.116  0.888  0.608-  92 2.97  95 3.07  74 3.09  91 3.13  79 3.15  73 3.27
  40  0.139  0.251  0.609-  98 2.85  77 2.93  95 3.09  76 3.10  94 3.42  73 3.46
  41  0.752  0.210  0.947- 105 2.86  60 2.95  57 2.99 106 3.25  58 3.31 103 3.36
  42  0.769  0.552  0.949-  63 2.98  60 3.03 108 3.03  61 3.13 100 3.17 106 3.27
  43  0.124  0.569  0.946-  62 2.94 101 3.01 107 3.09  61 3.10  58 3.16 106 3.35
  44  0.128  0.904  0.947-  56 2.91 104 3.00  55 3.07 101 3.10  61 3.24 100 3.33
  45  1.000  0.026  0.497- 121 2.86  94 2.95 120 3.07  95 3.19 118 3.34  91 3.42
  46  0.778  0.550  0.603-  97 2.92  99 2.94  91 3.01  78 3.23  79 3.28  81 3.34   7 4.03
  47  0.541  0.440  0.387-  68 2.92 125 3.07 122 3.08  72 3.11  69 3.20 126 3.35
  48  0.871  0.436  0.058- 117 2.85  60 2.97 114 3.07  61 3.21 115 3.26  58 3.38
  49  0.015  0.015  0.838- 104 2.94 130 2.97 103 2.98 100 3.23 127 3.25 129 3.34   8 4.07
  50  0.891  0.792  0.389-  64 2.97 120 2.97 118 3.08  72 3.10  70 3.26 126 3.27
  51  0.306  0.343  0.497- 121 2.85  98 2.86 125 2.97  95 3.27 122 3.46  99 3.49
  52  0.790  0.898  0.278-  64 2.95  85 2.96  82 3.08  66 3.11  72 3.20  84 3.28
  53  0.340  0.992  0.502-  92 2.95  96 2.97 119 2.97  95 3.23 118 3.23 122 3.26
  54  0.003  0.664  0.833- 101 3.06 127 3.07 133 3.08 100 3.12 106 3.13 135 3.17
  55  0.007  0.009  0.998-  44 3.07   8 3.08   6 3.11  28 3.18  35 3.44
  56  0.331  0.998  0.000-  44 2.91  13 3.07   6 3.09
  57  0.658  0.989  0.997-  35 2.97  41 2.99  28 2.99
  58  0.004  0.331  0.996-  23 3.07   8 3.11  43 3.16  41 3.31  35 3.37  48 3.38
  59  0.336  0.337  0.002-  23 2.95   6 3.09   2 3.09   8 3.17
  60  0.667  0.332  0.001-  41 2.95  48 2.97  42 3.03
  61  0.999  0.666  0.001-  43 3.10  42 3.13  13 3.14  48 3.21  44 3.24
  62  0.333  0.668  0.999-  43 2.94   2 3.08  23 3.15  13 3.28
  63  0.666  0.667  0.999-  42 2.98  28 3.05   2 3.06
  64  0.993  0.001  0.334-  52 2.95  50 2.97   3 3.10
  65  0.328  1.000  0.332-  27 3.10   3 3.10  10 3.10  22 3.30  36 3.32
  66  0.666  0.000  0.331-  38 2.92  27 3.07  52 3.11  36 3.29
  67  0.998  0.335  0.332-  15 2.97  38 3.00  17 3.02
  68  0.335  0.336  0.334-  47 2.92  32 2.94  10 3.17
  69  0.667  0.334  0.333-  36 3.15  38 3.19  47 3.20  15 3.21  11 3.23  10 3.24
  70  0.000  0.668  0.331-   3 3.13  17 3.16  22 3.16  11 3.17  50 3.26  15 3.28
  71  0.330  0.670  0.333-  22 3.04  17 3.08  27 3.11  32 3.26
  72  0.668  0.669  0.335-  50 3.10  47 3.11  11 3.15  52 3.20  32 3.31
  73  0.001  0.000  0.669-   4 3.08  12 3.11  31 3.17  29 3.21  39 3.27  40 3.46
  74  0.330  1.000  0.666-   9 3.03  39 3.09  31 3.14  37 3.14
  75  0.670  0.001  0.665-  29 2.90   1 3.08   4 3.09  37 3.56
  76  0.011  0.333  0.669-  25 2.93  40 3.10   4 3.13  24 3.22
  77  0.332  0.330  0.669-  40 2.93  25 2.99  31 3.00
  78  0.680  0.319  0.661-  24 2.84  37 2.97  46 3.23
  79  0.005  0.665  0.665-  12 3.07  39 3.15  24 3.16   9 3.20  46 3.28
  80  0.333  0.661  0.668-  25 2.90   9 3.02   1 3.11
  81  0.670  0.668  0.669-  29 2.96   1 3.10  12 3.12  46 3.34
  82  0.885  0.778  0.221-  11 2.99  52 3.08   3 3.11  26 3.25
  83  0.222  0.785  0.224-  27 3.09   3 3.12  14 3.18  17 3.19  30 3.30  26 3.43
  84  0.555  0.780  0.221-  20 3.04  30 3.10  27 3.15  52 3.28  32 3.32
  85  0.891  0.109  0.225-  52 2.96  20 3.00  38 3.02
  86  0.223  0.115  0.223-  10 2.97   3 3.05  14 3.16  18 3.33
  87  0.553  0.116  0.221-  10 3.03  27 3.12  14 3.14  38 3.23  20 3.34
  88  0.885  0.447  0.222-  26 2.94  11 3.07  17 3.16  38 3.28
  89  0.224  0.443  0.225-  32 2.92  17 3.01  30 3.25  18 3.35
  90  0.552  0.447  0.223-  32 2.95  11 3.04  10 3.10  18 3.33
  91  0.890  0.772  0.553-  46 3.01  39 3.13   5 3.14  21 3.23  29 3.38  45 3.42
  92  0.227  0.784  0.556-  53 2.95  39 2.97   5 3.12
  93  0.556  0.773  0.557-  16 2.90  21 3.02  29 3.05
  94  0.884  0.109  0.555-  16 2.90  45 2.95  29 3.28  40 3.42
  95  0.223  0.113  0.555-  39 3.07  40 3.09  45 3.19  53 3.23  51 3.27
  96  0.553  0.104  0.554-  16 2.93  53 2.97   7 3.13
  97  0.894  0.444  0.559-  46 2.92   7 3.04   5 3.05
  98  0.238  0.454  0.558-  40 2.85  51 2.86
  99  0.562  0.441  0.554-  46 2.94   7 3.07  21 3.08  51 3.49
 100  0.888  0.772  0.889-  34 3.07  54 3.12  42 3.17  28 3.21  49 3.23  44 3.33
 101  0.218  0.777  0.889-  43 3.01  54 3.06  44 3.10  19 3.27
 102  0.563  0.776  0.889-  34 2.93  28 3.01   2 3.10  19 3.32
 103  0.896  0.110  0.890-  49 2.98   8 3.05  28 3.12  41 3.36
 104  0.227  0.108  0.888-  49 2.94  44 3.00   8 3.08
 105  0.553  0.115  0.894-  33 2.84  41 2.86
 106  0.884  0.438  0.888-  33 2.95  54 3.13  41 3.25  42 3.27  43 3.35
 107  0.229  0.455  0.890-   2 3.06  43 3.09   8 3.09  19 3.15
 108  0.560  0.446  0.891-  34 3.01  42 3.03  33 3.11   2 3.14
 109  0.115  0.893  0.111-  13 2.93  14 3.03   6 3.08  26 3.33
 110  0.439  0.889  0.110-  13 3.02  30 3.05  14 3.08  20 3.38
 111  0.770  0.895  0.111-  20 2.83  35 2.87
 112  0.113  0.222  0.110-  18 2.93  23 3.06   6 3.08  35 3.44
 113  0.443  0.225  0.111-  18 2.90  14 3.03   6 3.07
 114  0.749  0.204  0.106-  35 2.84  48 3.07  20 3.12
 115  0.108  0.553  0.113-  26 2.99  30 3.09  13 3.19  48 3.26  23 3.28
 116  0.438  0.558  0.109-  18 2.94  30 2.98  23 3.10
 117  0.776  0.539  0.112-  26 2.85  48 2.85
 118  0.106  0.879  0.446-  50 3.08   5 3.11  22 3.13  53 3.23  45 3.34
 119  0.438  0.887  0.444-  53 2.97  22 3.05  36 3.10  16 3.37
 120  0.780  0.891  0.444-  50 2.97  45 3.07  21 3.18  16 3.28
 121  0.104  0.229  0.446-  51 2.85  45 2.86
 122  0.458  0.230  0.447-  36 2.95  47 3.08   7 3.14  53 3.26  51 3.46
 123  0.779  0.220  0.441-  36 2.96  15 2.96   7 3.13  16 3.45
 124  0.112  0.550  0.442-  22 2.94  15 2.99   5 3.10
 125  0.443  0.556  0.445-  51 2.97  21 2.98  47 3.07
 126  0.781  0.555  0.447-   7 3.10   5 3.12  21 3.17  15 3.27  50 3.27  47 3.35
 127  0.116  0.885  0.779-  54 3.07  12 3.11   9 3.18  31 3.20  49 3.25
 128  0.444  0.891  0.776-   9 2.99  19 3.06   1 3.10  37 3.29
 129  0.782  0.882  0.776-   4 3.07  12 3.11   1 3.12  34 3.21  49 3.34
 130  0.104  0.214  0.778-  49 2.97  31 3.08   4 3.09  25 3.33
 131  0.452  0.248  0.772-  37 2.81  31 3.01  33 3.32
 132  0.767  0.221  0.774-  37 3.02  24 3.03  33 3.14   4 3.14
 133  0.117  0.557  0.779-  19 2.93  54 3.08   9 3.20  25 3.21  24 3.47
 134  0.448  0.565  0.780-  19 2.93  34 3.09   1 3.13  25 3.23
 135  0.781  0.552  0.775-  24 3.00  12 3.05  54 3.17  34 3.33  33 3.46
 
  LATTYP: Found a triclinic cell.
 ALAT       =    13.3275115920
 B/A-ratio  =     1.0031643017
 C/A-ratio  =     2.3781368382
 COS(alpha) =     0.0008003666
 COS(beta)  =     0.0010678410
 COS(gamma) =     0.5043369697
  
  Lattice vectors:
  
 A1 = (   6.7033172508,  11.5190303077,  -0.0066212628)
 A2 = (  13.3696666957,   0.0211780678,  -0.0032305072)
 A3 = (   0.0176921440,   0.0106443788, -31.6946395531)


Analysis of symmetry for initial positions (statically):
=====================================================================
 Subroutine PRICEL returns:
 Original cell was already a primitive cell.
 

 Routine SETGRP: Setting up the symmetry group for a 
 triclinic supercell.


 Subroutine GETGRP returns: Found  1 space group operations
 (whereof  1 operations were pure point group operations)
 out of a pool of  2 trial point group operations.


The static configuration has the point symmetry C_1 .


Analysis of symmetry for dynamics (positions and initial velocities):
=====================================================================
 Subroutine PRICEL returns:
 Original cell was already a primitive cell.
 

 Routine SETGRP: Setting up the symmetry group for a 
 triclinic supercell.


 Subroutine GETGRP returns: Found  1 space group operations
 (whereof  1 operations were pure point group operations)
 out of a pool of  2 trial point group operations.


The dynamic configuration has the point symmetry C_1 .


 Subroutine INISYM returns: Found  1 space group operations
 (whereof  1 operations are pure point group operations),
 and found     1 'primitive' translations

 
 
 KPOINTS: K-Spacing Value to Generate K-Mesh: 0.03

Automatic generation of k-mesh.
Space group operators:
 irot       det(A)        alpha          n_x          n_y          n_z        tau_x        tau_y        tau_z
    1     1.000000     0.000000     1.000000     0.000000     0.000000     0.000000     0.000000     0.000000
 
 Subroutine IBZKPT returns following result:
 ===========================================
 
 Found      5 irreducible k-points:
 
 Following reciprocal coordinates:
            Coordinates               Weight
  0.000000  0.000000  0.000000      1.000000
  0.333333 -0.000000  0.000000      2.000000
  0.000000  0.333333  0.000000      2.000000
  0.333333  0.333333  0.000000      2.000000
 -0.333333  0.333333  0.000000      2.000000
 
 Following cartesian coordinates:
            Coordinates               Weight
  0.000000  0.000000  0.000000      1.000000
  0.024909  0.014442  0.000019      2.000000
 -0.000046  0.028964  0.000010      2.000000
  0.024863  0.043406  0.000028      2.000000
 -0.024955  0.014522 -0.000009      2.000000
 
 TETIRR: Found     24 inequivalent tetrahedra from       54


--------------------------------------------------------------------------------------------------------




 Dimension of arrays:
   k-points           NKPTS =      5   k-points in BZ     NKDIM =      5   number of bands    NBANDS=    482
   number of dos      NEDOS =   2001   number of ions     NIONS =    135
   non local maximal  LDIM  =      7   non local SUM 2l+1 LMDIM =     25
   total plane-waves  NPLWV = ******
   max r-space proj   IRMAX =   7998   max aug-charges    IRDMAX= 244311
   dimension x,y,z NGX =    96 NGY =   96 NGZ =  224
   dimension x,y,z NGXF=   192 NGYF=  192 NGZF=  448
   support grid    NGXF=   384 NGYF=  384 NGZF=  896
   ions per type =               8  46  81
   NGX,Y,Z   is equivalent  to a cutoff of  11.94, 12.01, 11.75 a.u.
   NGXF,Y,Z  is equivalent  to a cutoff of  23.87, 24.02, 23.50 a.u.

 SYSTEM =  unknown system                          
 POSCAR =  Y8 Sb46 Te81                            

 Startparameter for this run:
   NWRITE =      2    write-flag & timer
   PREC   = accura    normal or accurate (medium, high low for compatibility)
   ISTART =      1    job   : 0-new  1-cont  2-samecut
   ICHARG =     11    charge: 1-file 2-atom 10-const
   ISPIN  =      1    spin polarized calculation?
   LNONCOLLINEAR =      F non collinear calculations
   LSORBIT =      F    spin-orbit coupling
   INIWAV =      1    electr: 0-lowe 1-rand  2-diag
   LASPH  =      F    aspherical Exc in radial PAW
   METAGGA=      F    non-selfconsistent MetaGGA calc.

 Electronic Relaxation 1
   ENCUT  =  450.0 eV  33.07 Ry    5.75 a.u.  23.13 22.99 54.82*2*pi/ulx,y,z
   ENINI  =  450.0     initial cutoff
   ENAUG  =  470.9 eV  augmentation charge cutoff
   NELM   =    100;   NELMIN=  4; NELMDL=  0     # of ELM steps 
   EDIFF  = 0.1E-07   stopping-criterion for ELM
   LREAL  =      T    real-space projection
   NLSPLINE    = F    spline interpolate recip. space projectors
   LCOMPAT=      F    compatible to vasp.4.4
   GGA_COMPAT  = T    GGA compatible to vasp.4.4-vasp.4.6
   LMAXPAW     = -100 max onsite density
   LMAXMIX     =    2 max onsite mixed and CHGCAR
   VOSKOWN=      0    Vosko Wilk Nusair interpolation
   ROPT   =   -0.00025  -0.00025  -0.00025
 Ionic relaxation
   EDIFFG = -.2E-01   stopping-criterion for IOM
   NSW    =      0    number of steps for IOM
   NBLOCK =      1;   KBLOCK =      1    inner block; outer block 
   IBRION =     -1    ionic relax: 0-MD 1-quasi-New 2-CG
   NFREE  =      0    steps in history (QN), initial steepest desc. (CG)
   ISIF   =      3    stress and relaxation
   IWAVPR =     10    prediction:  0-non 1-charg 2-wave 3-comb
   ISYM   =      2    0-nonsym 1-usesym 2-fastsym
   LCORR  =      T    Harris-Foulkes like correction to forces

   POTIM  = 0.5000    time-step for ionic-motion
   TEIN   =    0.0    initial temperature
   TEBEG  =    0.0;   TEEND  =   0.0 temperature during run
   SMASS  =  -3.00    Nose mass-parameter (am)
   estimated Nose-frequenzy (Omega)   =  0.10E-29 period in steps =****** mass=  -0.408E-26a.u.
   SCALEE = 1.0000    scale energy and forces
   NPACO  =    256;   APACO  = 16.0  distance and # of slots for P.C.
   PSTRESS=    0.0 pullay stress

  Mass of Ions in am
   POMASS =  88.91121.75127.60
  Ionic Valenz
   ZVAL   =  11.00  5.00  6.00
  Atomic Wigner-Seitz radii
   RWIGS  =  -1.00 -1.00 -1.00
  virtual crystal weights 
   VCA    =   1.00  1.00  1.00
   NELECT =     804.0000    total number of electrons
   NUPDOWN=      -1.0000    fix difference up-down

 DOS related values:
   EMIN   =  10.00;   EMAX   =-10.00  energy-range for DOS
   EFERMI =   0.00
   ISMEAR =    -5;   SIGMA  =   0.05  broadening in eV -4-tet -1-fermi 0-gaus

 Electronic relaxation 2 (details)
   IALGO  =     68    algorithm
   LDIAG  =      T    sub-space diagonalisation (order eigenvalues)
   LSUBROT=      F    optimize rotation matrix (better conditioning)
   TURBO    =      0    0=normal 1=particle mesh
   IRESTART =      0    0=no restart 2=restart with 2 vectors
   NREBOOT  =      0    no. of reboots
   NMIN     =      0    reboot dimension
   EREF     =   0.00    reference energy to select bands
   IMIX   =      4    mixing-type and parameters
     AMIX     =   0.40;   BMIX     =  1.00
     AMIX_MAG =   1.60;   BMIX_MAG =  1.00
     AMIN     =   0.10
     WC   =   100.;   INIMIX=   1;  MIXPRE=   1;  MAXMIX= -45

 Intra band minimization:
   WEIMIN = 0.0000     energy-eigenvalue tresh-hold
   EBREAK =  0.52E-11  absolut break condition
   DEPER  =   0.30     relativ break condition  

   TIME   =   0.40     timestep for ELM

  volume/ion in A,a.u.               =      36.12       243.77
  Fermi-wavevector in a.u.,A,eV,Ry     =   0.897676  1.696362 10.963877  0.805822
  Thomas-Fermi vector in A             =   2.020290
 
 Write flags
   LWAVE        =      F    write WAVECAR
   LDOWNSAMPLE  =      F    k-point downsampling of WAVECAR
   LCHARG       =      F    write CHGCAR
   LVTOT        =      F    write LOCPOT, total local potential
   LVHAR        =      F    write LOCPOT, Hartree potential only
   LELF         =      T    write electronic localiz. function (ELF)
   LORBIT       =     11    0 simple, 1 ext, 2 COOP (PROOUT), +10 PAW based schemes


 Dipole corrections
   LMONO  =      F    monopole corrections only (constant potential shift)
   LDIPOL =      F    correct potential (dipole corrections)
   IDIPOL =      0    1-x, 2-y, 3-z, 4-all directions 
   EPSILON=  1.0000000 bulk dielectric constant

 Exchange correlation treatment:
   GGA     =    --    GGA type
   LEXCH   =     8    internal setting for exchange type
   VOSKOWN=      0    Vosko Wilk Nusair interpolation
   LHFCALC =     F    Hartree Fock is set to
   LHFONE  =     F    Hartree Fock one center treatment
   AEXX    =    0.0000 exact exchange contribution

 Linear response parameters
   LEPSILON=     F    determine dielectric tensor
   LRPA    =     F    only Hartree local field effects (RPA)
   LNABLA  =     F    use nabla operator in PAW spheres
   LVEL    =     F    velocity operator in full k-point grid
   LINTERFAST=   F  fast interpolation
   KINTER  =     0    interpolate to denser k-point grid
   CSHIFT  =0.1000    complex shift for real part using Kramers Kronig
   OMEGAMAX=  -1.0    maximum frequency
   DEG_THRESHOLD= 0.2000000E-02 threshold for treating states as degnerate
   RTIME   =   -0.100 relaxation time in fs
  (WPLASMAI=    0.000 imaginary part of plasma frequency in eV, 0.658/RTIME)
   DFIELD  = 0.0000000 0.0000000 0.0000000 field for delta impulse in time
 
 Orbital magnetization related:
   ORBITALMAG=     F  switch on orbital magnetization
   LCHIMAG   =     F  perturbation theory with respect to B field
   DQ        =  0.001000  dq finite difference perturbation B field
   LLRAUG    =     F  two centre corrections for induced B field



--------------------------------------------------------------------------------------------------------


 Static calculation
 charge density and potential remain constant during run
 non-spin polarized calculation
 RMM-DIIS sequential band-by-band and
  variant of blocked Davidson during initial phase
 perform sub-space diagonalisation
    before iterative eigenvector-optimisation
 no mixing
 using additional bands           80
 real space projection scheme for non local part
 use partial core corrections
 calculate Harris-corrections to forces 
   (improved forces if not selfconsistent)
 use gradient corrections 
 WARNING: stress and forces are not correct
  (second derivative of E(xc) not defined)
 use of overlap-Matrix (Vanderbilt PP)
 Fermi weights with tetrahedron method with Bloechl corrections


--------------------------------------------------------------------------------------------------------


  energy-cutoff  :      450.00
  volume of cell :     4876.65
      direct lattice vectors                 reciprocal lattice vectors
    13.369666696  0.021178068 -0.003230507     0.074727563  0.043326373  0.000056264
    -6.666349445 11.497852240 -0.003390756    -0.000137635  0.086892974  0.000029105
    -0.017692144 -0.010644379 31.694639553     0.000007602  0.000013712  0.031551085

  length of vectors
    13.369683859 13.290629502 31.694646278     0.086379318  0.086893088  0.031551089


 
 old parameters found on file WAVECAR:
  energy-cutoff  :      450.00
  volume of cell :     4876.65
      direct lattice vectors                 reciprocal lattice vectors
    13.369666696  0.021178068 -0.003230507     0.074727563  0.043326373  0.000056264
    -6.666349445 11.497852240 -0.003390756    -0.000137635  0.086892974  0.000029105
    -0.017692144 -0.010644379 31.694639553     0.000007602  0.000013712  0.031551085

  length of vectors

 
 k-points in units of 2pi/SCALE and weight: K-Spacing Value to Generate K-Mesh: 0.03
   0.00000000  0.00000000  0.00000000       0.111
   0.02490919  0.01444212  0.00001875       0.222
  -0.00004588  0.02896432  0.00000970       0.222
   0.02486331  0.04340645  0.00002846       0.222
  -0.02495507  0.01452220 -0.00000905       0.222
 
 k-points in reciprocal lattice and weights: K-Spacing Value to Generate K-Mesh: 0.03
   0.00000000  0.00000000  0.00000000       0.111
   0.33333333 -0.00000000  0.00000000       0.222
   0.00000000  0.33333333  0.00000000       0.222
   0.33333333  0.33333333  0.00000000       0.222
  -0.33333333  0.33333333  0.00000000       0.222
 
 position of ions in fractional coordinates (direct lattice) 
   0.55833682  0.78351410  0.72107609
   0.44567100  0.55701622  0.94608737
   0.10587344  0.89660835  0.27723469
   0.88368634  0.10447882  0.72283350
   0.00465730  0.65603387  0.50114529
   0.22535228  0.11259200  0.05527545
   0.68148735  0.33508136  0.50253612
   0.11985037  0.22490417  0.94069286
   0.23669509  0.78341925  0.72005738
   0.43678585  0.21817086  0.27439487
   0.77544865  0.56239453  0.27374797
   0.89739970  0.77282191  0.72167304
   0.21897476  0.78652030  0.05883780
   0.33372505  0.00558503  0.16349314
   0.89585026  0.43460664  0.38972590
   0.66449457  0.99003869  0.51102186
   0.11241372  0.55028791  0.27716854
   0.33345620  0.33539697  0.15505284
   0.33234719  0.66564831  0.82728066
   0.68470983  0.99842787  0.16775017
   0.65389076  0.66178973  0.49937362
   0.21721627  0.76531608  0.39163756
   0.22090271  0.43617458  0.05230628
   0.86768314  0.43312673  0.71750541
   0.22858845  0.44864667  0.71681150
   0.97875273  0.64222736  0.16262435
   0.44488264  0.89367063  0.27762211
   0.77311381  0.88676197  0.94560221
   0.76342478  0.88052127  0.61667142
   0.33753964  0.66838567  0.16333382
   0.22965104  0.11869318  0.72391169
   0.43245034  0.53659380  0.27666264
   0.66227889  0.31467240  0.84183888
   0.66126261  0.66271863  0.83810947
   0.85075291  0.09668967  0.05841951
   0.55836021  0.11885371  0.39436057
   0.54626280  0.13745678  0.72453104
   0.78025894  0.21096876  0.28033837
   0.11626579  0.88779814  0.60757330
   0.13913701  0.25080164  0.60916113
   0.75241453  0.20991366  0.94726522
   0.76947126  0.55235381  0.94862594
   0.12436069  0.56881354  0.94645726
   0.12760226  0.90416642  0.94659882
   0.99964822  0.02560686  0.49738364
   0.77757904  0.54961367  0.60309399
   0.54084591  0.44042476  0.38729115
   0.87067482  0.43612746  0.05791596
   0.01475793  0.01455361  0.83753520
   0.89127065  0.79181094  0.38929813
   0.30609847  0.34330713  0.49670022
   0.78985582  0.89826203  0.27846838
   0.33959149  0.99169917  0.50213020
   0.00339099  0.66437975  0.83312825
   0.00713569  0.00900559  0.99811130
   0.33134377  0.99811937  0.00008739
   0.65800141  0.98948788  0.99668293
   0.00445064  0.33109847  0.99649693
   0.33605091  0.33681692  0.00196196
   0.66653787  0.33229060  0.00096678
   0.99912845  0.66576741  0.00101250
   0.33289499  0.66755179  0.99944651
   0.66643662  0.66665202  0.99901072
   0.99315663  0.00092012  0.33449253
   0.32821309  0.99989007  0.33186122
   0.66597471  0.00033019  0.33141469
   0.99761227  0.33472979  0.33151776
   0.33460157  0.33606057  0.33409802
   0.66686395  0.33354205  0.33263786
   0.00038581  0.66845101  0.33104690
   0.33031223  0.67048989  0.33304202
   0.66803318  0.66888610  0.33542846
   0.00075053  0.00006574  0.66892652
   0.33026557  0.99971841  0.66566089
   0.67007657  0.00083044  0.66453445
   0.01132275  0.33250431  0.66933503
   0.33217417  0.32958225  0.66859979
   0.67981121  0.31880613  0.66057165
   0.00516712  0.66475465  0.66502889
   0.33283209  0.66146629  0.66778055
   0.67008519  0.66811969  0.66883225
   0.88504748  0.77791945  0.22134843
   0.22169590  0.78483127  0.22392756
   0.55495771  0.78014316  0.22076890
   0.89115919  0.10945005  0.22505273
   0.22285137  0.11460798  0.22280457
   0.55340528  0.11605821  0.22143511
   0.88488258  0.44660774  0.22218348
   0.22362904  0.44300529  0.22518061
   0.55181870  0.44749625  0.22334193
   0.89046874  0.77248848  0.55341645
   0.22699441  0.78372776  0.55620284
   0.55646928  0.77262930  0.55699827
   0.88373742  0.10938349  0.55518874
   0.22271444  0.11290254  0.55548739
   0.55338486  0.10363176  0.55377570
   0.89403788  0.44394398  0.55893675
   0.23800106  0.45437870  0.55825288
   0.56212431  0.44080560  0.55372468
   0.88791138  0.77202047  0.88868496
   0.21798441  0.77733222  0.88931764
   0.56325278  0.77597944  0.88945432
   0.89583068  0.10953972  0.88998557
   0.22732851  0.10800210  0.88788944
   0.55250731  0.11475206  0.89422900
   0.88359677  0.43816263  0.88761654
   0.22911326  0.45480722  0.89046546
   0.56047648  0.44567258  0.89090585
   0.11489719  0.89285571  0.11071146
   0.43925894  0.88890514  0.11003403
   0.77038493  0.89488659  0.11107488
   0.11317870  0.22180705  0.10956640
   0.44293960  0.22497578  0.11070626
   0.74890720  0.20417026  0.10565817
   0.10834753  0.55331092  0.11307679
   0.43768632  0.55772987  0.10935144
   0.77556768  0.53906960  0.11174958
   0.10562388  0.87946797  0.44640656
   0.43765372  0.88733854  0.44436684
   0.78036609  0.89069460  0.44365780
   0.10387580  0.22942145  0.44580545
   0.45769971  0.22962714  0.44651475
   0.77915994  0.22021487  0.44132703
   0.11212372  0.55046434  0.44150655
   0.44329520  0.55557651  0.44524054
   0.78057391  0.55537949  0.44661882
   0.11550748  0.88527920  0.77879610
   0.44383676  0.89095755  0.77628702
   0.78157317  0.88191116  0.77580921
   0.10386231  0.21371806  0.77815003
   0.45248352  0.24834648  0.77241024
   0.76690714  0.22112019  0.77391056
   0.11661466  0.55741192  0.77859338
   0.44834434  0.56467910  0.77952345
   0.78053703  0.55188997  0.77478559
 
 position of ions in cartesian coordinates  (Angst):
   2.22884110  9.01287839 22.84978650
   2.22846964  6.40385814 29.98256974
  -4.56651692 10.30836156  8.78347149
  11.10531098  1.21230272 22.90673832
  -4.31995074  7.53774470 15.88137993
   2.26132931  1.29875036  1.75082567
   6.86859835  3.86179934 15.92436352
   0.08642680  2.57844005 29.81377124
  -2.07075135  9.00498691 22.81853807
   4.38042341  2.51482582  8.69469574
   6.61352842  6.47983779  8.67193126
   6.83326606  8.89711552 22.86764727
  -2.31664052  9.04730538  1.86146857
   4.42166835  0.06954321  5.18075913
   9.07308451  5.01186697 12.34785426
   2.27508601 11.39195178 16.19115000
  -2.17038121  6.32655947  8.78252780
   2.21958158  3.86175635  4.91212937
  -0.00870946  7.65175850 26.21703166
   2.49550530 11.49249130  5.31118375
   4.32174493  7.61769318 15.82311063
  -2.20468420  8.79992273 12.40951473
   0.04477801  5.01919241  1.65563620
   8.70056601  4.99076559 22.73680365
   0.05263399  5.15568411 22.71682247
   8.80140863  7.40323234  5.14898053
  -0.01449980 10.28175955  8.79466531
   4.40807912 10.20216578 29.96501672
   4.32596212 10.13370723 19.53972644
   0.05421033  7.69040949  5.17344988
   2.26630010  1.36187466 22.94297576
   2.19970043  6.17588976  8.76550627
   6.74183786  3.62312167 26.67857334
   4.40811873  7.62492404 26.55919433
  10.72868215  1.12911903  1.84850918
   6.66579249  1.37418966 12.49690939
   6.37419820  1.58431433 22.96151941
   9.02045072  2.43922794  8.88198775
  -4.37468705 10.20376688 19.25343079
   0.17750680  2.88014266 19.30584246
   8.64341457  2.41940790 30.02008713
   6.58860755  6.35708086 30.06199860
  -2.14599375  6.53269332 29.99529112
  -4.33823696 10.38859826 29.99863048
  13.18545949  0.31030021 15.76107901
   6.72138587  6.32942477 19.11047106
   4.28805213  5.07127043 12.27181269
   8.73222951  5.03235180  1.83133384
   0.08547133  0.15873273 26.54527934
   6.63061557  9.11885671 12.33309985
   1.79504151  3.94849019 15.74058141
   4.56705370 10.34184762  8.82035743
  -2.07967201 11.40425756 15.91037606
  -4.39839103  7.63014391 26.40343595
   0.01770866  0.09307182 31.63472430
  -2.22385831 11.48324528 -0.00168505
   2.18335408 11.38031154 31.58402542
  -2.16534465  3.79640841 31.58247409
   2.24751464  3.87976719  0.05995596
   6.69620683  3.83473397  0.02736182
   8.91975827  7.67604417  0.02660565
  -0.01712079  7.67182338 31.67375787
   4.44822548  7.66854638 31.65887127
  13.26612135  0.02805213 10.59840855
  -2.28338841 11.50000680 10.51377105
   8.89579526  0.01437281 10.50191658
  11.10045249  3.86627240 10.50297823
   2.22730338  3.86750467 10.58689580
   6.68635586  3.84559932 10.53955166
  -4.45682676  7.68223535 10.49014434
  -0.05944773  7.71264408 10.55230618
   4.46641799  7.70133073 10.62685807
  -0.00223870 -0.00634858 21.20138239
  -2.26070858 11.49452339 21.09342518
   8.94140736  0.01666569 21.06001226
  -2.07705051  3.81620053 21.21316860
   2.23211855  3.78940602 21.18883857
   6.95188936  3.67295143 20.93330333
  -4.37416991  7.63628137 21.07558034
   0.02847422  7.60538231 21.16174571
   4.49306331  7.68901323 21.19396689
   6.64299085  8.96079036  7.01006188
  -2.27192093  9.02618553  7.09392603
   2.21498681  8.97937378  6.99275270
  11.18088735  1.27491796  7.12971524
   2.21148986  1.32009358  7.06060187
   6.62124182  1.34378322  7.01612468
   8.84941098  5.15140489  7.03765224
   0.03263372  5.09594847  7.13479387
   4.39051434  5.15455488  7.07544198
   6.74580102  8.89492604 17.53483895
  -2.19960398  9.01007284 17.62525782
   2.27933739  8.88943357 17.64944195
  11.07626370  1.27048140 17.59328116
   2.21514229  1.29694053 17.60487029
   6.69792810  1.19736767 17.54958206
   8.98361394  5.11738672 17.71090532
   0.14307103  5.22347730 17.69131435
   4.56705393  5.07432831 17.54679358
   6.70879826  8.88592199 28.16106330
  -2.28332324  8.93280131 28.18326219
   2.34181547  8.92455788 28.18648336
  11.23098178  1.26897017 28.20450634
   2.30361798  1.23715554 28.14023506
   6.60604038  1.32158472 28.34009190
   8.87674532  5.04719393 28.12834619
   0.01550982  5.22467990 28.22069934
   4.50661250  5.12666416 28.23361804
  -4.41790979 10.26717790  3.50556109
  -0.05495339 10.22863140  3.48305585
   4.33219782 10.30440677  3.51495519
   0.03257977  2.55153532  3.47154969
   4.42022907  2.59494044  3.50660137
   8.64969998  2.36225525  3.34568602
  -2.24199417  6.36297821  3.58170180
   2.13176343  6.42080096  3.46254951
   6.77347791  6.21337812  3.53752925
  -4.45858262 10.10947795 14.14537167
  -0.07188625 10.20702604 14.07962416
   4.48770374 10.25287911 14.05603292
  -0.14850593  2.63530845 14.12852958
   4.58061795  2.64515926 14.14986672
   8.94127137  2.54380151 13.98443728
  -2.17834206  6.32683260 13.99116222
   2.21516461  6.39258541 14.10842238
   6.72575761  6.39744843 14.15101763
  -4.37106258 10.17296581 24.68028689
  -0.01921903 10.24523482 24.59968258
   4.55651908 10.14837836 24.58347796
  -0.04988194  2.45121534 24.66212452
   4.38032383  2.85681199 24.47896018
   8.76553624  2.55041107 24.52558909
  -2.17057842  6.40322187 24.67496976
   2.21607465  6.49379442 24.70335158
   6.74272085  6.35383254 24.55215720
 


--------------------------------------------------------------------------------------------------------


 k-point  1 :   0.0000 0.0000 0.0000  plane waves:  105589
 k-point  2 :   0.3333-0.0000 0.0000  plane waves:  105690
 k-point  3 :   0.0000 0.3333 0.0000  plane waves:  105754
 k-point  4 :   0.3333 0.3333 0.0000  plane waves:  105717
 k-point  5 :  -0.3333 0.3333 0.0000  plane waves:  105688

 maximum and minimum number of plane-waves per node :     10598    10521

 maximum number of plane-waves:    105754
 maximum index in each direction: 
   IXMAX=   23   IYMAX=   22   IZMAX=   54
   IXMIN=  -23   IYMIN=  -23   IZMIN=  -54


 real space projection operators:
  total allocation   :      70495.35 KBytes
  max/ min on nodes  :       7378.97       6759.40


 parallel 3D FFT for wavefunctions:
    minimum data exchange during FFTs selected (reduces bandwidth)
 parallel 3D FFT for charge:
    minimum data exchange during FFTs selected (reduces bandwidth)


 total amount of memory used by VASP MPI-rank0   459793. kBytes
=======================================================================

   base      :      30000. kBytes
   nonlr-proj:      27444. kBytes
   fftplans  :     130549. kBytes
   grid      :      63851. kBytes
   one-center:        420. kBytes
   wavefun   :     207529. kBytes
 
     INWAV:  cpu time   28.6656: real time   59.8895
 initial charge density was supplied:
 number of electron     803.9999994 magnetization 
 keeping initial charge density in first step


--------------------------------------------------------------------------------------------------------


 Maximum index for non-local projection operator          970
 Maximum index for augmentation-charges        15149 (set IRDMAX)


--------------------------------------------------------------------------------------------------------


 First call to EWALD:  gamma=   0.105
 Maximum number of real-space cells 4x 4x 2
 Maximum number of reciprocal cells 2x 2x 5

    FEWALD:  cpu time    0.0830: real time    0.1558


--------------------------------------- Iteration      1(   1)  ---------------------------------------


    POTLOK:  cpu time    2.2677: real time   14.4477
    SETDIJ:  cpu time    1.6747: real time    7.3471
     EDDAV:  cpu time  231.0009: real time  445.9263
 BZINTS: Fermi energy:  4.612603;804.000000 electrons
         Band energy:***********;  BLOECHL correction:  0.000000
       DOS:  cpu time    0.0040: real time    0.0143
    --------------------------------------------
      LOOP:  cpu time  234.9473: real time  467.7355

 eigenvalue-minimisations  :  5384
 total energy-change (2. order) :-0.5351443E+03  (-0.8126401E-04)
 number of electron     803.9999994 magnetization 
 augmentation part      803.9999994 magnetization 

 Free energy of the ion-electron system (eV)
  ---------------------------------------------------
  alpha Z        PSCENC =       238.48548170
  Ewald energy   TEWEN  =    -28119.73756732
  -Hartree energ DENC   =     -5989.45786946
  -exchange      EXHF   =         0.00000000
  -V(xc)+E(xc)   XCENC  =     -4052.12677002
  PAW double counting   =     55866.51198408   -50173.84109505
  entropy T*S    EENTRO =         0.00000000
  eigenvalues    EBANDS =     -1662.99413611
  atomic energy  EATOM  =     33358.01564123
  Solvation  Ediel_sol  =         0.00000000
  ---------------------------------------------------
  free energy    TOTEN  =      -535.14433096 eV

  energy without entropy =     -535.14433096  energy(sigma->0) =     -535.14433096


--------------------------------------------------------------------------------------------------------




--------------------------------------- Iteration      1(   2)  ---------------------------------------


    EDDIAG:  cpu time   38.5271: real time   78.8031
  RMM-DIIS:  cpu time  171.6189: real time  331.8552
    ORTHCH:  cpu time    3.9554: real time    7.6918
 BZINTS: Fermi energy:  4.612105;804.000000 electrons
         Band energy:***********;  BLOECHL correction:  0.000000
       DOS:  cpu time    0.0230: real time    0.1839
    --------------------------------------------
      LOOP:  cpu time  214.1244: real time  418.5340

 eigenvalue-minimisations  :  6409
 total energy-change (2. order) :-0.3082147E-05  (-0.3082156E-05)
 number of electron     803.9999994 magnetization 
 augmentation part      803.9999994 magnetization 

 Free energy of the ion-electron system (eV)
  ---------------------------------------------------
  alpha Z        PSCENC =       238.48548170
  Ewald energy   TEWEN  =    -28119.73756732
  -Hartree energ DENC   =     -5989.45786946
  -exchange      EXHF   =         0.00000000
  -V(xc)+E(xc)   XCENC  =     -4052.12677002
  PAW double counting   =     55866.51198408   -50173.84109505
  entropy T*S    EENTRO =         0.00000000
  eigenvalues    EBANDS =     -1662.99413919
  atomic energy  EATOM  =     33358.01564123
  Solvation  Ediel_sol  =         0.00000000
  ---------------------------------------------------
  free energy    TOTEN  =      -535.14433404 eV

  energy without entropy =     -535.14433404  energy(sigma->0) =     -535.14433404


--------------------------------------------------------------------------------------------------------




--------------------------------------- Iteration      1(   3)  ---------------------------------------


    EDDIAG:  cpu time   31.9111: real time   62.4025
WARNING in EDDRMM: call to ZHEGV failed, returncode =   8  4     27
WARNING in EDDRMM: call to ZHEGV failed, returncode =   8  4     63
WARNING in EDDRMM: call to ZHEGV failed, returncode =   8  4     67
WARNING in EDDRMM: call to ZHEGV failed, returncode =   8  4     70
WARNING in EDDRMM: call to ZHEGV failed, returncode =   6  3     99
WARNING in EDDRMM: call to ZHEGV failed, returncode =   8  4    106
WARNING in EDDRMM: call to ZHEGV failed, returncode =   8  4    111
WARNING in EDDRMM: call to ZHEGV failed, returncode =   8  4    226
WARNING in EDDRMM: call to ZHEGV failed, returncode =   8  4     72
WARNING in EDDRMM: call to ZHEGV failed, returncode =   8  4    100
WARNING in EDDRMM: call to ZHEGV failed, returncode =   6  3    227
WARNING in EDDRMM: call to ZHEGV failed, returncode =   8  4     38
WARNING in EDDRMM: call to ZHEGV failed, returncode =   8  4     42
WARNING in EDDRMM: call to ZHEGV failed, returncode =   8  4     54
WARNING in EDDRMM: call to ZHEGV failed, returncode =   8  4    225
WARNING in EDDRMM: call to ZHEGV failed, returncode =   8  4     51
WARNING in EDDRMM: call to ZHEGV failed, returncode =   8  4     52
WARNING in EDDRMM: call to ZHEGV failed, returncode =   8  4     67
WARNING in EDDRMM: call to ZHEGV failed, returncode =   8  4     75
WARNING in EDDRMM: call to ZHEGV failed, returncode =   6  3    109
  RMM-DIIS:  cpu time  228.1983: real time  444.6885
    ORTHCH:  cpu time    4.0004: real time    7.9060
 BZINTS: Fermi energy:  4.611854;804.000000 electrons
         Band energy:***********;  BLOECHL correction:  0.000000
       DOS:  cpu time    0.0520: real time    0.1398
    --------------------------------------------
      LOOP:  cpu time  264.1618: real time  515.1368

 eigenvalue-minimisations  :  9165
 total energy-change (2. order) : 0.2647721E-07  (-0.4261609E-06)
 number of electron     803.9999994 magnetization 
 augmentation part      803.9999994 magnetization 

 Free energy of the ion-electron system (eV)
  ---------------------------------------------------
  alpha Z        PSCENC =       238.48548170
  Ewald energy   TEWEN  =    -28119.73756732
  -Hartree energ DENC   =     -5989.45786946
  -exchange      EXHF   =         0.00000000
  -V(xc)+E(xc)   XCENC  =     -4052.12677002
  PAW double counting   =     55866.51198408   -50173.84109505
  entropy T*S    EENTRO =         0.00000000
  eigenvalues    EBANDS =     -1662.99413917
  atomic energy  EATOM  =     33358.01564123
  Solvation  Ediel_sol  =         0.00000000
  ---------------------------------------------------
  free energy    TOTEN  =      -535.14433401 eV

  energy without entropy =     -535.14433401  energy(sigma->0) =     -535.14433401


--------------------------------------------------------------------------------------------------------




--------------------------------------- Iteration      1(   4)  ---------------------------------------


    EDDIAG:  cpu time   30.5134: real time   59.9765
WARNING in EDDRMM: call to ZHEGV failed, returncode =   8  4     33
WARNING in EDDRMM: call to ZHEGV failed, returncode =   8  4     78
WARNING in EDDRMM: call to ZHEGV failed, returncode =   8  4    146
WARNING in EDDRMM: call to ZHEGV failed, returncode =   8  4    204
WARNING in EDDRMM: call to ZHEGV failed, returncode =   8  4    229
WARNING in EDDRMM: call to ZHEGV failed, returncode =   8  4    232
WARNING in EDDRMM: call to ZHEGV failed, returncode =   8  4    234
WARNING in EDDRMM: call to ZHEGV failed, returncode =   8  4    236
WARNING in EDDRMM: call to ZHEGV failed, returncode =   8  4    225
WARNING in EDDRMM: call to ZHEGV failed, returncode =   6  3    232
WARNING in EDDRMM: call to ZHEGV failed, returncode =   8  4    234
WARNING in EDDRMM: call to ZHEGV failed, returncode =   8  4    231
WARNING in EDDRMM: call to ZHEGV failed, returncode =   8  4    187
WARNING in EDDRMM: call to ZHEGV failed, returncode =   8  4    218
WARNING in EDDRMM: call to ZHEGV failed, returncode =   8  4    221
WARNING in EDDRMM: call to ZHEGV failed, returncode =   8  4    227
WARNING in EDDRMM: call to ZHEGV failed, returncode =   8  4    233
WARNING in EDDRMM: call to ZHEGV failed, returncode =   8  4     19
WARNING in EDDRMM: call to ZHEGV failed, returncode =   8  4     76
WARNING in EDDRMM: call to ZHEGV failed, returncode =   8  4    235
  RMM-DIIS:  cpu time  166.2087: real time  326.9780
    ORTHCH:  cpu time    4.3183: real time    8.5347
 BZINTS: Fermi energy:  4.611770;804.000000 electrons
         Band energy:***********;  BLOECHL correction:  0.000000
       DOS:  cpu time    0.0310: real time    0.1417
    --------------------------------------------
      LOOP:  cpu time  201.0714: real time  395.6309

 eigenvalue-minimisations  :  6174
 total energy-change (2. order) :-0.8818461E-08  (-0.2752055E-07)
 number of electron     803.9999994 magnetization 
 augmentation part      803.9999994 magnetization 

 Free energy of the ion-electron system (eV)
  ---------------------------------------------------
  alpha Z        PSCENC =       238.48548170
  Ewald energy   TEWEN  =    -28119.73756732
  -Hartree energ DENC   =     -5989.45786946
  -exchange      EXHF   =         0.00000000
  -V(xc)+E(xc)   XCENC  =     -4052.12677002
  PAW double counting   =     55866.51198408   -50173.84109505
  entropy T*S    EENTRO =         0.00000000
  eigenvalues    EBANDS =     -1662.99413917
  atomic energy  EATOM  =     33358.01564123
  Solvation  Ediel_sol  =         0.00000000
  ---------------------------------------------------
  free energy    TOTEN  =      -535.14433402 eV

  energy without entropy =     -535.14433402  energy(sigma->0) =     -535.14433402


--------------------------------------------------------------------------------------------------------




--------------------------------------- Iteration      1(   5)  ---------------------------------------


    EDDIAG:  cpu time   31.3622: real time   61.6649
WARNING in EDDRMM: call to ZHEGV failed, returncode =   8  4     98
WARNING in EDDRMM: call to ZHEGV failed, returncode =   8  4    109
WARNING in EDDRMM: call to ZHEGV failed, returncode =   8  4    126
WARNING in EDDRMM: call to ZHEGV failed, returncode =   8  4    138
WARNING in EDDRMM: call to ZHEGV failed, returncode =   8  4    139
WARNING in EDDRMM: call to ZHEGV failed, returncode =   8  4    141
WARNING in EDDRMM: call to ZHEGV failed, returncode =   8  4    199
WARNING in EDDRMM: call to ZHEGV failed, returncode =   8  4    212
WARNING in EDDRMM: call to ZHEGV failed, returncode =   6  3    215
WARNING in EDDRMM: call to ZHEGV failed, returncode =   8  4    229
WARNING in EDDRMM: call to ZHEGV failed, returncode =   8  4    232
WARNING in EDDRMM: call to ZHEGV failed, returncode =   6  3     94
WARNING in EDDRMM: call to ZHEGV failed, returncode =   8  4     93
WARNING in EDDRMM: call to ZHEGV failed, returncode =   8  4    129
WARNING in EDDRMM: call to ZHEGV failed, returncode =   6  3    130
WARNING in EDDRMM: call to ZHEGV failed, returncode =   8  4    205
WARNING in EDDRMM: call to ZHEGV failed, returncode =   6  3    221
WARNING in EDDRMM: call to ZHEGV failed, returncode =   8  4    227
WARNING in EDDRMM: call to ZHEGV failed, returncode =   6  3    234
WARNING in EDDRMM: call to ZHEGV failed, returncode =   8  4    237
WARNING in EDDRMM: call to ZHEGV failed, returncode =   8  4    105
WARNING in EDDRMM: call to ZHEGV failed, returncode =   8  4    126
WARNING in EDDRMM: call to ZHEGV failed, returncode =   8  4    127
WARNING in EDDRMM: call to ZHEGV failed, returncode =   8  4    135
WARNING in EDDRMM: call to ZHEGV failed, returncode =   6  3    140
WARNING in EDDRMM: call to ZHEGV failed, returncode =   8  4    142
WARNING in EDDRMM: call to ZHEGV failed, returncode =   8  4    203
WARNING in EDDRMM: call to ZHEGV failed, returncode =   8  4    205
WARNING in EDDRMM: call to ZHEGV failed, returncode =   8  4    206
WARNING in EDDRMM: call to ZHEGV failed, returncode =   8  4    209
WARNING in EDDRMM: call to ZHEGV failed, returncode =   8  4    227
WARNING in EDDRMM: call to ZHEGV failed, returncode =   6  3    234
WARNING in EDDRMM: call to ZHEGV failed, returncode =   8  4     14
WARNING in EDDRMM: call to ZHEGV failed, returncode =   8  4     15
WARNING in EDDRMM: call to ZHEGV failed, returncode =   8  4    115
WARNING in EDDRMM: call to ZHEGV failed, returncode =   8  4    116
WARNING in EDDRMM: call to ZHEGV failed, returncode =   8  4    123
WARNING in EDDRMM: call to ZHEGV failed, returncode =   8  4    138
WARNING in EDDRMM: call to ZHEGV failed, returncode =   6  3    196
WARNING in EDDRMM: call to ZHEGV failed, returncode =   6  3    198
WARNING in EDDRMM: call to ZHEGV failed, returncode =   8  4    203
WARNING in EDDRMM: call to ZHEGV failed, returncode =   8  4    205
WARNING in EDDRMM: call to ZHEGV failed, returncode =   8  4    208
WARNING in EDDRMM: call to ZHEGV failed, returncode =   8  4    212
WARNING in EDDRMM: call to ZHEGV failed, returncode =   8  4    226
WARNING in EDDRMM: call to ZHEGV failed, returncode =   8  4    230
WARNING in EDDRMM: call to ZHEGV failed, returncode =   6  3    233
WARNING in EDDRMM: call to ZHEGV failed, returncode =   8  4     86
WARNING in EDDRMM: call to ZHEGV failed, returncode =   6  3    110
WARNING in EDDRMM: call to ZHEGV failed, returncode =   8  4    127
WARNING in EDDRMM: call to ZHEGV failed, returncode =   8  4    137
WARNING in EDDRMM: call to ZHEGV failed, returncode =   8  4    138
WARNING in EDDRMM: call to ZHEGV failed, returncode =   6  3    143
WARNING in EDDRMM: call to ZHEGV failed, returncode =   8  4    205
WARNING in EDDRMM: call to ZHEGV failed, returncode =   8  4    206
WARNING in EDDRMM: call to ZHEGV failed, returncode =   8  4    209
WARNING in EDDRMM: call to ZHEGV failed, returncode =   8  4    210
WARNING in EDDRMM: call to ZHEGV failed, returncode =   8  4    211
WARNING in EDDRMM: call to ZHEGV failed, returncode =   6  3    213
WARNING in EDDRMM: call to ZHEGV failed, returncode =   8  4    229
WARNING in EDDRMM: call to ZHEGV failed, returncode =   8  4    231
WARNING in EDDRMM: call to ZHEGV failed, returncode =   6  3    234
WARNING in EDDRMM: call to ZHEGV failed, returncode =   6  3    237
  RMM-DIIS:  cpu time  124.5531: real time  243.7022
    ORTHCH:  cpu time    3.8514: real time    7.6542
 BZINTS: Fermi energy:  4.611696;804.000000 electrons
         Band energy:***********;  BLOECHL correction:  0.000000
       DOS:  cpu time    0.0070: real time    0.0082
    --------------------------------------------
      LOOP:  cpu time  159.7737: real time  313.0296

 eigenvalue-minimisations  :  4567
 total energy-change (2. order) : 0.1848093E-08  (-0.3421636E-08)
 number of electron     803.9999994 magnetization 
 augmentation part      803.9999994 magnetization 

 Free energy of the ion-electron system (eV)
  ---------------------------------------------------
  alpha Z        PSCENC =       238.48548170
  Ewald energy   TEWEN  =    -28119.73756732
  -Hartree energ DENC   =     -5989.45786946
  -exchange      EXHF   =         0.00000000
  -V(xc)+E(xc)   XCENC  =     -4052.12677002
  PAW double counting   =     55866.51198408   -50173.84109505
  entropy T*S    EENTRO =         0.00000000
  eigenvalues    EBANDS =     -1662.99413917
  atomic energy  EATOM  =     33358.01564123
  Solvation  Ediel_sol  =         0.00000000
  ---------------------------------------------------
  free energy    TOTEN  =      -535.14433402 eV

  energy without entropy =     -535.14433402  energy(sigma->0) =     -535.14433402


--------------------------------------------------------------------------------------------------------




 average (electrostatic) potential at core
  the test charge radii are     1.2780  1.1712  1.1897
  (the norm of the test charge is              1.0000)
       1 -36.2608       2 -36.3690       3 -36.4393       4 -36.3958       5 -36.3398
       6 -36.3571       7 -36.2665       8 -36.2320       9 -88.4725      10 -88.5077
      11 -88.6148      12 -88.4191      13 -88.5372      14 -88.5120      15 -88.6622
      16 -88.6233      17 -88.5306      18 -88.5611      19 -88.6176      20 -88.5002
      21 -88.6260      22 -88.6052      23 -88.5956      24 -88.5892      25 -88.5850
      26 -88.5625      27 -88.4293      28 -88.5793      29 -88.5496      30 -88.5642
      31 -88.5462      32 -88.5493      33 -88.6836      34 -88.6899      35 -88.4108
      36 -88.6568      37 -88.5705      38 -88.5890      39 -88.6618      40 -88.5694
      41 -88.5692      42 -88.5311      43 -88.4401      44 -88.5307      45 -88.4839
      46 -88.5535      47 -88.6581      48 -88.4721      49 -88.5278      50 -88.6347
      51 -88.4636      52 -88.6704      53 -88.6256      54 -88.5603      55 -89.1143
      56 -89.2043      57 -89.7800      58 -89.1786      59 -89.2828      60 -89.7209
      61 -89.3517      62 -89.3494      63 -88.9540      64 -89.4049      65 -89.2208
      66 -89.6164      67 -89.6157      68 -89.5552      69 -89.5091      70 -89.5457
      71 -89.2917      72 -89.4912      73 -89.3823      74 -89.4166      75 -88.9896
      76 -89.3542      77 -89.7598      78 -89.3222      79 -89.3723      80 -89.2455
      81 -89.1150      82 -89.3954      83 -89.3065      84 -89.5044      85 -89.7084
      86 -89.2190      87 -89.3208      88 -89.3969      89 -89.5248      90 -89.5931
      91 -89.5413      92 -89.3490      93 -89.7333      94 -89.4892      95 -89.5602
      96 -89.4135      97 -88.8725      98 -89.2242      99 -89.1571     100 -89.6247
     101 -89.3511     102 -89.4443     103 -88.9886     104 -89.2234     105 -89.2924
     106 -89.4641     107 -88.9120     108 -89.5831     109 -89.3889     110 -89.4276
     111 -89.1295     112 -89.2164     113 -89.3335     114 -89.2239     115 -89.5326
     116 -89.5373     117 -89.1340     118 -89.1884     119 -89.7262     120 -89.4353
     121 -89.1826     122 -89.3833     123 -89.3983     124 -89.3383     125 -89.7572
     126 -89.2172     127 -89.3703     128 -89.1996     129 -89.0427     130 -89.1114
     131 -89.3413     132 -89.5720     133 -89.5916     134 -89.3094     135 -89.4342
 
 
 
 E-fermi :   4.6117     XC(G=0):  -8.6608     alpha+bet : -9.8315


 k-point     1 :       0.0000    0.0000    0.0000
  band No.  band energies     occupation 
      1     -38.3036      2.00000
      2     -38.2605      2.00000
      3     -38.2357      2.00000
      4     -38.2242      2.00000
      5     -38.2041      2.00000
      6     -38.1336      2.00000
      7     -38.1241      2.00000
      8     -38.0983      2.00000
      9     -18.3020      2.00000
     10     -18.2867      2.00000
     11     -18.2803      2.00000
     12     -18.2770      2.00000
     13     -18.2664      2.00000
     14     -18.2442      2.00000
     15     -18.2415      2.00000
     16     -18.2385      2.00000
     17     -18.2161      2.00000
     18     -18.2065      2.00000
     19     -18.2055      2.00000
     20     -18.1964      2.00000
     21     -18.1797      2.00000
     22     -18.1649      2.00000
     23     -18.1613      2.00000
     24     -18.1432      2.00000
     25     -18.1187      2.00000
     26     -18.1152      2.00000
     27     -18.0996      2.00000
     28     -18.0979      2.00000
     29     -18.0970      2.00000
     30     -18.0950      2.00000
     31     -18.0862      2.00000
     32     -18.0680      2.00000
     33      -7.7974      2.00000
     34      -7.7118      2.00000
     35      -7.6341      2.00000
     36      -7.4266      2.00000
     37      -7.3783      2.00000
     38      -7.2451      2.00000
     39      -7.2002      2.00000
     40      -7.1969      2.00000
     41      -7.1714      2.00000
     42      -7.1194      2.00000
     43      -7.0461      2.00000
     44      -7.0191      2.00000
     45      -7.0079      2.00000
     46      -6.9844      2.00000
     47      -6.9699      2.00000
     48      -6.9367      2.00000
     49      -6.9226      2.00000
     50      -6.8842      2.00000
     51      -6.8413      2.00000
     52      -6.8044      2.00000
     53      -6.7700      2.00000
     54      -6.7619      2.00000
     55      -6.6776      2.00000
     56      -6.6688      2.00000
     57      -6.6628      2.00000
     58      -6.6325      2.00000
     59      -6.5640      2.00000
     60      -6.4897      2.00000
     61      -6.4777      2.00000
     62      -6.4281      2.00000
     63      -6.3857      2.00000
     64      -6.3805      2.00000
     65      -6.3656      2.00000
     66      -6.3186      2.00000
     67      -6.2752      2.00000
     68      -6.2424      2.00000
     69      -6.2342      2.00000
     70      -6.2115      2.00000
     71      -6.1548      2.00000
     72      -6.1486      2.00000
     73      -6.1214      2.00000
     74      -6.1178      2.00000
     75      -6.0925      2.00000
     76      -6.0542      2.00000
     77      -6.0349      2.00000
     78      -6.0135      2.00000
     79      -5.9960      2.00000
     80      -5.9785      2.00000
     81      -5.9636      2.00000
     82      -5.9475      2.00000
     83      -5.9214      2.00000
     84      -5.9139      2.00000
     85      -5.9000      2.00000
     86      -5.8955      2.00000
     87      -5.8880      2.00000
     88      -5.8836      2.00000
     89      -5.8737      2.00000
     90      -5.8528      2.00000
     91      -5.8469      2.00000
     92      -5.8382      2.00000
     93      -5.8275      2.00000
     94      -5.8064      2.00000
     95      -5.8024      2.00000
     96      -5.7907      2.00000
     97      -5.7816      2.00000
     98      -5.7800      2.00000
     99      -5.7518      2.00000
    100      -5.7472      2.00000
    101      -5.7311      2.00000
    102      -5.7234      2.00000
    103      -5.7177      2.00000
    104      -5.7163      2.00000
    105      -5.7084      2.00000
    106      -5.6667      2.00000
    107      -5.6602      2.00000
    108      -5.6205      2.00000
    109      -5.5986      2.00000
    110      -5.5814      2.00000
    111      -5.5607      2.00000
    112      -5.5524      2.00000
    113      -5.5407      2.00000
    114      -4.5849      2.00000
    115      -4.5445      2.00000
    116      -4.5018      2.00000
    117      -4.4800      2.00000
    118      -4.4231      2.00000
    119      -4.4176      2.00000
    120      -4.3830      2.00000
    121      -4.3467      2.00000
    122      -4.3287      2.00000
    123      -4.2941      2.00000
    124      -4.2594      2.00000
    125      -4.2322      2.00000
    126      -4.1257      2.00000
    127      -4.1004      2.00000
    128      -4.0515      2.00000
    129      -4.0059      2.00000
    130      -3.9953      2.00000
    131      -3.9708      2.00000
    132      -3.9332      2.00000
    133      -3.8989      2.00000
    134      -3.8714      2.00000
    135      -3.8521      2.00000
    136      -3.8144      2.00000
    137      -3.7480      2.00000
    138      -3.7219      2.00000
    139      -3.6920      2.00000
    140      -3.6261      2.00000
    141      -3.5922      2.00000
    142      -3.5755      2.00000
    143      -3.5096      2.00000
    144      -3.4873      2.00000
    145      -3.4664      2.00000
    146      -3.4359      2.00000
    147      -3.3986      2.00000
    148      -3.3158      2.00000
    149      -3.2713      2.00000
    150      -3.2564      2.00000
    151      -3.2284      2.00000
    152      -3.1905      2.00000
    153      -3.1403      2.00000
    154      -3.1152      2.00000
    155      -2.9024      2.00000
    156      -2.8518      2.00000
    157      -2.5856      2.00000
    158      -2.4034      2.00000
    159      -2.3463      2.00000
    160      -0.0474      2.00000
    161      -0.0105      2.00000
    162       0.0151      2.00000
    163       0.0684      2.00000
    164       0.0816      2.00000
    165       0.1095      2.00000
    166       0.1661      2.00000
    167       0.1855      2.00000
    168       0.2100      2.00000
    169       0.2513      2.00000
    170       0.2821      2.00000
    171       0.2969      2.00000
    172       0.3462      2.00000
    173       0.3710      2.00000
    174       0.3895      2.00000
    175       0.4023      2.00000
    176       0.4504      2.00000
    177       0.4615      2.00000
    178       0.4866      2.00000
    179       0.4952      2.00000
    180       0.5184      2.00000
    181       0.5256      2.00000
    182       0.5539      2.00000
    183       0.5839      2.00000
    184       0.6214      2.00000
    185       0.6366      2.00000
    186       0.6717      2.00000
    187       0.6896      2.00000
    188       0.7001      2.00000
    189       0.7587      2.00000
    190       0.7947      2.00000
    191       0.8056      2.00000
    192       0.8239      2.00000
    193       0.8757      2.00000
    194       0.8765      2.00000
    195       0.8994      2.00000
    196       0.9235      2.00000
    197       0.9518      2.00000
    198       0.9705      2.00000
    199       0.9843      2.00000
    200       1.0146      2.00000
    201       1.0300      2.00000
    202       1.0692      2.00000
    203       1.0812      2.00000
    204       1.1114      2.00000
    205       1.1370      2.00000
    206       1.1503      2.00000
    207       1.1741      2.00000
    208       1.2047      2.00000
    209       1.2149      2.00000
    210       1.2316      2.00000
    211       1.2610      2.00000
    212       1.2705      2.00000
    213       1.2894      2.00000
    214       1.2935      2.00000
    215       1.3205      2.00000
    216       1.3412      2.00000
    217       1.3584      2.00000
    218       1.3836      2.00000
    219       1.4172      2.00000
    220       1.4269      2.00000
    221       1.4569      2.00000
    222       1.4713      2.00000
    223       1.4863      2.00000
    224       1.5165      2.00000
    225       1.5219      2.00000
    226       1.5728      2.00000
    227       1.6005      2.00000
    228       1.6033      2.00000
    229       1.6269      2.00000
    230       1.6397      2.00000
    231       1.6560      2.00000
    232       1.6649      2.00000
    233       1.6679      2.00000
    234       1.6965      2.00000
    235       1.7288      2.00000
    236       1.7360      2.00000
    237       1.7518      2.00000
    238       1.7598      2.00000
    239       1.7706      2.00000
    240       1.7939      2.00000
    241       1.8177      2.00000
    242       1.8307      2.00000
    243       1.8425      2.00000
    244       1.8499      2.00000
    245       1.8652      2.00000
    246       1.8985      2.00000
    247       1.9127      2.00000
    248       1.9366      2.00000
    249       1.9556      2.00000
    250       1.9588      2.00000
    251       1.9680      2.00000
    252       1.9930      2.00000
    253       2.0088      2.00000
    254       2.0288      2.00000
    255       2.0443      2.00000
    256       2.0693      2.00000
    257       2.0834      2.00000
    258       2.1012      2.00000
    259       2.1042      2.00000
    260       2.1205      2.00000
    261       2.1444      2.00000
    262       2.1522      2.00000
    263       2.1614      2.00000
    264       2.1970      2.00000
    265       2.2044      2.00000
    266       2.2295      2.00000
    267       2.2384      2.00000
    268       2.2496      2.00000
    269       2.2627      2.00000
    270       2.2720      2.00000
    271       2.3001      2.00000
    272       2.3222      2.00000
    273       2.3417      2.00000
    274       2.3462      2.00000
[...]
     -2.07075      9.00499     22.81854        -0.006855     -0.033182      0.080294
      4.38042      2.51483      8.69470         0.002210     -0.002918     -0.003911
      6.61353      6.47984      8.67193         0.034902     -0.004908      0.094456
      6.83327      8.89712     22.86765        -0.022648      0.030332      0.003982
     -2.31664      9.04731      1.86147        -0.030766      0.038227      0.046593
      4.42167      0.06954      5.18076        -0.014503     -0.013649      0.074162
      9.07308      5.01187     12.34785        -0.065437      0.045704     -0.094029
      2.27509     11.39195     16.19115        -0.077259      0.079592     -0.148957
     -2.17038      6.32656      8.78253        -0.045103      0.066320      0.011135
      2.21958      3.86176      4.91213        -0.075724     -0.008954      0.073615
     -0.00871      7.65176     26.21703        -0.018629      0.080376     -0.018120
      2.49551     11.49249      5.31118        -0.021818     -0.051106      0.007510
      4.32174      7.61769     15.82311         0.132778     -0.036236      0.030559
     -2.20468      8.79992     12.40951        -0.107146      0.031221     -0.083029
      0.04478      5.01919      1.65564        -0.004568     -0.032170      0.020059
      8.70057      4.99077     22.73680         0.010497      0.027610      0.050978
      0.05263      5.15568     22.71682        -0.094127      0.011864      0.080591
      8.80141      7.40323      5.14898         0.037730     -0.064881      0.041881
     -0.01450     10.28176      8.79467        -0.082942      0.001848     -0.054986
      4.40808     10.20217     29.96502         0.083904      0.046982     -0.075374
      4.32596     10.13371     19.53973         0.100294     -0.005656     -0.005581
      0.05421      7.69041      5.17345        -0.041184      0.026019      0.060157
      2.26630      1.36187     22.94298        -0.095011     -0.073858      0.065924
      2.19970      6.17589      8.76551         0.006662      0.011593      0.053498
      6.74184      3.62312     26.67857         0.047266      0.069874     -0.003827
      4.40812      7.62492     26.55919         0.001895     -0.004531     -0.037873
     10.72868      1.12912      1.84851         0.046070     -0.025218     -0.026337
      6.66579      1.37419     12.49691        -0.054741      0.051777     -0.100515
      6.37420      1.58431     22.96152         0.122684     -0.005742     -0.051480
      9.02045      2.43923      8.88199        -0.070391      0.016357     -0.058693
     -4.37469     10.20377     19.25343         0.002511     -0.040262      0.080915
      0.17751      2.88014     19.30584         0.030919     -0.106013      0.088787
      8.64341      2.41941     30.02009         0.110598      0.033772     -0.087639
      6.58861      6.35708     30.06200         0.004065      0.071515     -0.106601
     -2.14599      6.53269     29.99529         0.040015     -0.001920      0.036884
     -4.33824     10.38860     29.99863        -0.052773     -0.006206     -0.014363
     13.18546      0.31030     15.76108         0.045182     -0.129474     -0.014378
      6.72139      6.32942     19.11047         0.033229      0.029153      0.043020
      4.28805      5.07127     12.27181         0.083769      0.007917     -0.006803
      8.73223      5.03235      1.83133         0.034158      0.022965     -0.023941
      0.08547      0.15873     26.54528        -0.024777     -0.001879      0.005705
      6.63062      9.11886     12.33310         0.029614     -0.055289      0.015174
      1.79504      3.94849     15.74058         0.091952     -0.032028      0.068208
      4.56705     10.34185      8.82036        -0.037764     -0.010365      0.022209
     -2.07967     11.40426     15.91038         0.030074     -0.070342     -0.025645
     -4.39839      7.63014     26.40344        -0.065713      0.033596     -0.011743
      0.01771      0.09307     31.63472         0.024107     -0.056668      0.107826
     -2.22386     11.48325     -0.00169         0.014842      0.026082     -0.009979
      2.18335     11.38031     31.58403        -0.061759      0.007688      0.114233
     -2.16534      3.79641     31.58247        -0.007657      0.036699      0.093198
      2.24751      3.87977      0.05996         0.009436      0.051491     -0.054424
      6.69621      3.83473      0.02736        -0.028063     -0.063638      0.122495
      8.91976      7.67604      0.02661         0.045436     -0.014874     -0.008220
     -0.01712      7.67182     31.67376        -0.003448     -0.012441     -0.007096
      4.44823      7.66855     31.65887         0.057307     -0.053586      0.178309
     13.26612      0.02805     10.59841         0.002007     -0.001121      0.014176
     -2.28339     11.50001     10.51377         0.002716     -0.014224      0.075859
      8.89580      0.01437     10.50192         0.016438     -0.029538      0.172687
     11.10045      3.86627     10.50298         0.044122     -0.047854      0.070996
      2.22730      3.86750     10.58690        -0.035028     -0.014419      0.042175
      6.68636      3.84560     10.53955        -0.043165     -0.006820      0.075471
     -4.45683      7.68224     10.49014        -0.018571      0.059977      0.066695
     -0.05945      7.71264     10.55231         0.002668      0.017203      0.082103
      4.46642      7.70133     10.62686        -0.016954      0.021793      0.020825
     -0.00224     -0.00635     21.20138        -0.015552     -0.039724     -0.137283
     -2.26071     11.49452     21.09343        -0.028591     -0.000763     -0.090828
      8.94141      0.01667     21.06001        -0.029943     -0.010478      0.007671
     -2.07705      3.81620     21.21317        -0.054469      0.009793     -0.118130
      2.23212      3.78941     21.18884         0.066629      0.067263     -0.157601
      6.95189      3.67295     20.93330        -0.040177      0.036993     -0.098055
     -4.37417      7.63628     21.07558        -0.083223      0.070194     -0.046668
      0.02847      7.60538     21.16175         0.051736     -0.011496     -0.189197
      4.49306      7.68901     21.19397        -0.016849     -0.035845     -0.041269
      6.64299      8.96079      7.01006         0.043126     -0.005307     -0.074566
     -2.27192      9.02619      7.09393        -0.039290     -0.017212     -0.094450
      2.21499      8.97937      6.99275        -0.004121      0.015158     -0.006388
     11.18089      1.27492      7.12972         0.031310     -0.018107     -0.084705
      2.21149      1.32009      7.06060         0.007957     -0.024137     -0.019737
      6.62124      1.34378      7.01612        -0.008289     -0.000072     -0.000721
      8.84941      5.15140      7.03765         0.024081      0.028433     -0.029992
      0.03263      5.09595      7.13479        -0.001190     -0.037742     -0.091035
      4.39051      5.15455      7.07544         0.005515     -0.055409     -0.155106
      6.74580      8.89493     17.53484        -0.005823      0.023128      0.044814
     -2.19960      9.01007     17.62526        -0.003183      0.005083     -0.001222
      2.27934      8.88943     17.64944        -0.021791     -0.057907      0.086861
     11.07626      1.27048     17.59328        -0.041871      0.045298      0.105291
      2.21514      1.29694     17.60487         0.006967      0.028074      0.057377
      6.69793      1.19737     17.54958         0.078200     -0.047794      0.186281
      8.98361      5.11739     17.71091         0.033661     -0.019395     -0.066908
      0.14307      5.22348     17.69131        -0.024888      0.043169     -0.002229
      4.56705      5.07433     17.54679        -0.075298      0.044593      0.110350
      6.70880      8.88592     28.16106         0.024304      0.035042      0.049514
     -2.28332      8.93280     28.18326        -0.002277     -0.032849      0.011319
      2.34182      8.92456     28.18648        -0.049744      0.051841     -0.044648
     11.23098      1.26897     28.20451        -0.011730     -0.005491     -0.136153
      2.30362      1.23716     28.14024         0.030958      0.006578     -0.008906
      6.60604      1.32158     28.34009         0.007397      0.011436     -0.041472
      8.87675      5.04719     28.12835        -0.007113     -0.021883      0.007221
      0.01551      5.22468     28.22070         0.072757     -0.090289     -0.049711
      4.50661      5.12666     28.23362        -0.061937     -0.006797     -0.001804
     -4.41791     10.26718      3.50556        -0.068368     -0.003926      0.047240
     -0.05495     10.22863      3.48306         0.006630     -0.001945     -0.026242
      4.33220     10.30441      3.51496         0.020699     -0.020079     -0.000274
      0.03258      2.55154      3.47155        -0.036916      0.039130      0.059109
      4.42023      2.59494      3.50660         0.077305      0.006836     -0.070845
      8.64970      2.36226      3.34569        -0.034620      0.059081      0.027780
     -2.24199      6.36298      3.58170         0.007054      0.035047     -0.021838
      2.13176      6.42080      3.46255         0.041783      0.016490     -0.119853
      6.77348      6.21338      3.53753        -0.025113      0.015854     -0.028884
     -4.45858     10.10948     14.14537        -0.014362      0.045969     -0.114378
     -0.07189     10.20703     14.07962         0.113606     -0.005315      0.049847
      4.48770     10.25288     14.05603        -0.020331     -0.026419     -0.032616
     -0.14851      2.63531     14.12853        -0.015726      0.060362     -0.145842
      4.58062      2.64516     14.14987        -0.063771     -0.018987     -0.080125
      8.94127      2.54380     13.98444         0.095608     -0.071057      0.092646
     -2.17834      6.32683     13.99116         0.047591     -0.042324      0.090099
      2.21516      6.39259     14.10842        -0.100222     -0.015821     -0.084976
      6.72576      6.39745     14.15102         0.046505      0.009250     -0.092112
     -4.37106     10.17297     24.68029        -0.066746     -0.043554     -0.013851
     -0.01922     10.24523     24.59968         0.035096     -0.009155      0.072590
      4.55652     10.14838     24.58348        -0.063599      0.031516      0.072124
     -0.04988      2.45122     24.66212         0.071343      0.056493      0.108858
      4.38032      2.85681     24.47896        -0.025156      0.045018      0.100057
      8.76554      2.55041     24.52559        -0.053219     -0.023818      0.110286
     -2.17058      6.40322     24.67497         0.022779     -0.020670     -0.043110
      2.21607      6.49379     24.70335         0.053191     -0.067018      0.016746
      6.74272      6.35383     24.55216        -0.020811      0.019628      0.043129
 -----------------------------------------------------------------------------------
    total drift:                                0.002628      0.006829      0.011779


--------------------------------------------------------------------------------------------------------



  FREE ENERGIE OF THE ION-ELECTRON SYSTEM (eV)
  ---------------------------------------------------
  free  energy   TOTEN  =      -588.37481408 eV

  energy  without entropy=     -588.37481408  energy(sigma->0) =     -588.37481408
 


--------------------------------------------------------------------------------------------------------


    POTLOK:  cpu time   10.0995: real time   19.9425


--------------------------------------------------------------------------------------------------------


     LOOP+:  cpu time 1407.0031: real time 2685.5831
    4ORBIT:  cpu time    0.0000: real time    0.0002
 


 total charge     
 
# of ion       s       p       d       f       tot
--------------------------------------------------
    1        2.184   6.312   0.855   0.033   9.383
    2        2.185   6.313   0.868   0.035   9.400
    3        2.187   6.302   0.862   0.033   9.383
    4        2.184   6.306   0.863   0.033   9.386
    5        2.185   6.314   0.856   0.033   9.388
    6        2.185   6.314   0.871   0.035   9.406
    7        2.185   6.322   0.863   0.034   9.404
    8        2.184   6.312   0.869   0.034   9.399
    9        1.302   0.937   0.051   0.000   2.290
   10        1.303   0.937   0.050   0.000   2.290
   11        1.300   0.939   0.049   0.000   2.288
   12        1.308   0.926   0.052   0.000   2.286
   13        1.298   0.943   0.050   0.000   2.291
   14        1.304   0.930   0.051   0.000   2.285
   15        1.297   0.948   0.049   0.000   2.293
   16        1.267   1.003   0.046   0.000   2.316
   17        1.301   0.939   0.049   0.000   2.289
   18        1.279   0.982   0.047   0.000   2.308
   19        1.288   0.957   0.048   0.000   2.293
   20        1.277   0.982   0.048   0.000   2.306
   21        1.297   0.942   0.049   0.000   2.288
   22        1.290   0.953   0.049   0.000   2.292
   23        1.300   0.936   0.052   0.000   2.288
   24        1.277   0.980   0.048   0.000   2.306
   25        1.279   0.978   0.049   0.000   2.307
   26        1.279   0.978   0.047   0.000   2.304
   27        1.312   0.921   0.051   0.000   2.284
   28        1.299   0.937   0.051   0.000   2.287
   29        1.298   0.947   0.050   0.000   2.294
   30        1.303   0.936   0.047   0.000   2.285
   31        1.294   0.945   0.050   0.000   2.289
   32        1.278   0.982   0.048   0.000   2.308
   33        1.282   0.968   0.046   0.000   2.296
   34        1.295   0.947   0.049   0.000   2.291
   35        1.264   1.008   0.046   0.000   2.318
   36        1.297   0.947   0.047   0.000   2.290
   37        1.270   0.994   0.047   0.000   2.311
   38        1.288   0.965   0.049   0.000   2.302
   39        1.296   0.944   0.047   0.000   2.286
   40        1.272   0.991   0.046   0.000   2.309
   41        1.275   0.984   0.048   0.000   2.307
   42        1.299   0.942   0.051   0.000   2.292
   43        1.294   0.949   0.050   0.000   2.293
   44        1.290   0.955   0.049   0.000   2.295
   45        1.284   0.972   0.046   0.000   2.302
   46        1.291   0.954   0.048   0.000   2.294
   47        1.296   0.948   0.047   0.000   2.291
   48        1.284   0.969   0.047   0.000   2.301
   49        1.292   0.952   0.048   0.000   2.292
   50        1.295   0.948   0.048   0.000   2.290
   51        1.259   1.018   0.046   0.000   2.322
   52        1.287   0.961   0.050   0.000   2.297
   53        1.285   0.966   0.049   0.000   2.300
   54        1.301   0.938   0.049   0.000   2.287
   55        1.370   2.022   0.021   0.000   3.413
   56        1.388   1.966   0.020   0.000   3.374
   57        1.405   1.897   0.025   0.000   3.327
   58        1.381   1.983   0.024   0.000   3.388
   59        1.364   2.057   0.018   0.000   3.439
   60        1.403   1.904   0.025   0.000   3.331
   61        1.392   1.931   0.025   0.000   3.348
   62        1.383   1.970   0.021   0.000   3.374
   63        1.385   1.977   0.019   0.000   3.380
   64        1.390   1.959   0.021   0.000   3.371
   65        1.378   1.982   0.021   0.000   3.381
   66        1.397   1.921   0.026   0.000   3.343
   67        1.400   1.912   0.023   0.000   3.336
   68        1.400   1.913   0.023   0.000   3.337
   69        1.388   1.940   0.027   0.000   3.355
   70        1.379   1.973   0.027   0.000   3.380
   71        1.393   1.929   0.022   0.000   3.344
   72        1.392   1.929   0.025   0.000   3.346
   73        1.379   1.983   0.025   0.000   3.386
   74        1.394   1.925   0.023   0.000   3.343
   75        1.376   2.021   0.021   0.000   3.417
   76        1.386   1.964   0.023   0.000   3.374
   77        1.405   1.899   0.026   0.000   3.331
   78        1.396   1.931   0.024   0.000   3.350
   79        1.392   1.932   0.025   0.000   3.349
   80        1.388   1.964   0.021   0.000   3.373
   81        1.382   1.977   0.020   0.000   3.380
   82        1.386   1.962   0.022   0.000   3.370
   83        1.377   1.984   0.025   0.000   3.386
   84        1.393   1.925   0.025   0.000   3.343
   85        1.403   1.903   0.024   0.000   3.330
   86        1.381   1.980   0.020   0.000   3.381
   87        1.391   1.936   0.025   0.000   3.352
   88        1.395   1.927   0.023   0.000   3.345
   89        1.396   1.920   0.024   0.000   3.340
   90        1.397   1.918   0.025   0.000   3.340
   91        1.382   1.969   0.027   0.000   3.379
   92        1.389   1.962   0.021   0.000   3.371
   93        1.403   1.905   0.024   0.000   3.332
   94        1.397   1.924   0.025   0.000   3.345
   95        1.394   1.921   0.025   0.000   3.340
   96        1.390   1.956   0.021   0.000   3.367
   97        1.377   2.022   0.019   0.000   3.419
   98        1.398   1.929   0.022   0.000   3.349
   99        1.385   1.972   0.022   0.000   3.379
  100        1.390   1.935   0.030   0.000   3.355
  101        1.394   1.930   0.023   0.000   3.347
  102        1.387   1.966   0.025   0.000   3.378
  103        1.382   1.981   0.020   0.000   3.384
  104        1.389   1.964   0.021   0.000   3.374
  105        1.399   1.923   0.022   0.000   3.345
  106        1.392   1.925   0.025   0.000   3.343
  107        1.368   2.033   0.018   0.000   3.419
  108        1.383   1.967   0.023   0.000   3.373
  109        1.386   1.971   0.023   0.000   3.380
  110        1.398   1.914   0.023   0.000   3.335
  111        1.398   1.929   0.022   0.000   3.349
  112        1.386   1.970   0.023   0.000   3.379
  113        1.392   1.958   0.022   0.000   3.371
  114        1.397   1.924   0.024   0.000   3.344
  115        1.390   1.932   0.026   0.000   3.348
  116        1.401   1.912   0.023   0.000   3.335
  117        1.396   1.934   0.021   0.000   3.351
  118        1.381   1.976   0.023   0.000   3.380
  119        1.398   1.910   0.024   0.000   3.332
  120        1.395   1.922   0.023   0.000   3.340
  121        1.397   1.930   0.021   0.000   3.348
  122        1.385   1.969   0.026   0.000   3.379
  123        1.388   1.966   0.023   0.000   3.377
  124        1.389   1.961   0.021   0.000   3.371
  125        1.402   1.901   0.023   0.000   3.326
  126        1.368   2.029   0.022   0.000   3.419
  127        1.391   1.932   0.025   0.000   3.349
  128        1.385   1.969   0.022   0.000   3.376
  129        1.365   2.036   0.019   0.000   3.421
  130        1.382   1.978   0.021   0.000   3.381
  131        1.397   1.923   0.023   0.000   3.344
  132        1.383   1.965   0.022   0.000   3.370
  133        1.393   1.925   0.027   0.000   3.346
  134        1.386   1.969   0.024   0.000   3.379
  135        1.392   1.930   0.025   0.000   3.347
--------------------------------------------------
tot        189.331 252.606  11.007   0.268 453.212

 
 BZINTS: Fermi energy:  4.611696;804.000000 electrons
         Band energy:***********;  BLOECHL correction:  0.000000

 total amount of memory used by VASP MPI-rank0   459793. kBytes
=======================================================================

   base      :      30000. kBytes
   nonlr-proj:      27444. kBytes
   fftplans  :     130549. kBytes
   grid      :      63851. kBytes
   one-center:        420. kBytes
   wavefun   :     207529. kBytes
 
  
  
 General timing and accounting informations for this job:
 ========================================================
  
                  Total CPU time used (sec):     1633.350
                            User time (sec):     1545.210
                          System time (sec):       88.140
                         Elapsed time (sec):     3231.754
  
                   Maximum memory used (kb):      640976.
                   Average memory used (kb):           0.
  
                          Minor page faults:       700334
                          Major page faults:        30065
                 Voluntary context switches:        39635
