unknown system                          
           1
    13.369667    0.021178   -0.003231
    -6.666349   11.497852   -0.003391
    -0.017692   -0.010644   31.694640
   Y    Sb   Te
   8  46  81
Direct configuration=     1
   0.55833682  0.78351410  0.72107609
   0.44567100  0.55701622  0.94608737
   0.10587344  0.89660835  0.27723469
   0.88368634  0.10447882  0.72283350
   0.00465730  0.65603387  0.50114529
   0.22535228  0.11259200  0.05527545
   0.68148735  0.33508136  0.50253612
   0.11985037  0.22490417  0.94069286
   0.23669509  0.78341925  0.72005738
   0.43678585  0.21817086  0.27439487
   0.77544865  0.56239453  0.27374797
   0.89739970  0.77282191  0.72167304
   0.21897476  0.78652030  0.05883780
   0.33372505  0.00558503  0.16349314
   0.89585026  0.43460664  0.38972590
   0.66449457  0.99003869  0.51102186
   0.11241372  0.55028791  0.27716854
   0.33345620  0.33539697  0.15505284
   0.33234719  0.66564831  0.82728066
   0.68470983  0.99842787  0.16775017
   0.65389076  0.66178973  0.49937362
   0.21721627  0.76531608  0.39163756
   0.22090271  0.43617458  0.05230628
   0.86768314  0.43312673  0.71750541
   0.22858845  0.44864667  0.71681150
   0.97875273  0.64222736  0.16262435
   0.44488264  0.89367063  0.27762211
   0.77311381  0.88676197  0.94560221
   0.76342478  0.88052127  0.61667142
   0.33753964  0.66838567  0.16333382
   0.22965104  0.11869318  0.72391169
   0.43245034  0.53659380  0.27666264
   0.66227889  0.31467240  0.84183888
   0.66126261  0.66271863  0.83810947
   0.85075291  0.09668967  0.05841951
   0.55836021  0.11885371  0.39436057
   0.54626280  0.13745678  0.72453104
   0.78025894  0.21096876  0.28033837
   0.11626579  0.88779814  0.60757330
   0.13913701  0.25080164  0.60916113
   0.75241453  0.20991366  0.94726522
   0.76947126  0.55235381  0.94862594
   0.12436069  0.56881354  0.94645726
   0.12760226  0.90416642  0.94659882
   0.99964822  0.02560686  0.49738364
   0.77757904  0.54961367  0.60309399
   0.54084591  0.44042476  0.38729115
   0.87067482  0.43612746  0.05791596
   0.01475793  0.01455361  0.83753520
   0.89127065  0.79181094  0.38929813
   0.30609847  0.34330713  0.49670022
   0.78985582  0.89826203  0.27846838
   0.33959149  0.99169917  0.50213020
   0.00339099  0.66437975  0.83312825
   0.00713569  0.00900559  0.99811130
   0.33134377  0.99811937  0.00008739
   0.65800141  0.98948788  0.99668293
   0.00445064  0.33109847  0.99649693
   0.33605091  0.33681692  0.00196196
   0.66653787  0.33229060  0.00096678
   0.99912845  0.66576741  0.00101250
   0.33289499  0.66755179  0.99944651
   0.66643662  0.66665202  0.99901072
   0.99315663  0.00092012  0.33449253
   0.32821309  0.99989007  0.33186122
   0.66597471  0.00033019  0.33141469
   0.99761227  0.33472979  0.33151776
   0.33460157  0.33606057  0.33409802
   0.66686395  0.33354205  0.33263786
   0.00038581  0.66845101  0.33104690
   0.33031223  0.67048989  0.33304202
   0.66803318  0.66888610  0.33542846
   0.00075053  0.00006574  0.66892652
   0.33026557  0.99971841  0.66566089
   0.67007657  0.00083044  0.66453445
   0.01132275  0.33250431  0.66933503
   0.33217417  0.32958225  0.66859979
   0.67981121  0.31880613  0.66057165
   0.00516712  0.66475465  0.66502889
   0.33283209  0.66146629  0.66778055
   0.67008519  0.66811969  0.66883225
   0.88504748  0.77791945  0.22134843
   0.22169590  0.78483127  0.22392756
   0.55495771  0.78014316  0.22076890
   0.89115919  0.10945005  0.22505273
   0.22285137  0.11460798  0.22280457
   0.55340528  0.11605821  0.22143511
   0.88488258  0.44660774  0.22218348
   0.22362904  0.44300529  0.22518061
   0.55181870  0.44749625  0.22334193
   0.89046874  0.77248848  0.55341645
   0.22699441  0.78372776  0.55620284
   0.55646928  0.77262930  0.55699827
   0.88373742  0.10938349  0.55518874
   0.22271444  0.11290254  0.55548739
   0.55338486  0.10363176  0.55377570
   0.89403788  0.44394398  0.55893675
   0.23800106  0.45437870  0.55825288
   0.56212431  0.44080560  0.55372468
   0.88791138  0.77202047  0.88868496
   0.21798441  0.77733222  0.88931764
   0.56325278  0.77597944  0.88945432
   0.89583068  0.10953972  0.88998557
   0.22732851  0.10800210  0.88788944
   0.55250731  0.11475206  0.89422900
   0.88359677  0.43816263  0.88761654
   0.22911326  0.45480722  0.89046546
   0.56047648  0.44567258  0.89090585
   0.11489719  0.89285571  0.11071146
   0.43925894  0.88890514  0.11003403
   0.77038493  0.89488659  0.11107488
   0.11317870  0.22180705  0.10956640
   0.44293960  0.22497578  0.11070626
   0.74890720  0.20417026  0.10565817
   0.10834753  0.55331092  0.11307679
   0.43768632  0.55772987  0.10935144
   0.77556768  0.53906960  0.11174958
   0.10562388  0.87946797  0.44640656
   0.43765372  0.88733854  0.44436684
   0.78036609  0.89069460  0.44365780
   0.10387580  0.22942145  0.44580545
   0.45769971  0.22962714  0.44651475
   0.77915994  0.22021487  0.44132703
   0.11212372  0.55046434  0.44150655
   0.44329520  0.55557651  0.44524054
   0.78057391  0.55537949  0.44661882
   0.11550748  0.88527920  0.77879610
   0.44383676  0.89095755  0.77628702
   0.78157317  0.88191116  0.77580921
   0.10386231  0.21371806  0.77815003
   0.45248352  0.24834648  0.77241024
   0.76690714  0.22112019  0.77391056
   0.11661466  0.55741192  0.77859338
   0.44834434  0.56467910  0.77952345
   0.78053703  0.55188997  0.77478559
